                         Program Version 5.0.3 -  RELEASE  -
|  1> ! wB97x-D3 cc-pvdz opt
|  2>
|  3> %tddft
|  4>  nroots 10
|  5>  tda TRUE
|  6>  IRoot 9
|  7>  followiroot true
|  8> end
|  9>
| 10> *xyz 0 1
| 11>  C    -1.984740     0.794106    -0.021524
| 12>  C    -2.838475     1.841678     0.081520
| 13>  C    -0.527088     0.785060     0.038111
| 14>  C    -2.376788    -0.615742    -0.217535
| 15>  C    -4.313726     1.911387     0.039093
| 16>  O    -2.346433     3.080298     0.258183
| 17>  C    -0.156560    -0.552710    -0.113631
| 18>  C     0.458919     1.755271     0.205109
| 19>  O    -1.258556    -1.379171    -0.266564
| 20>  O    -3.476969    -1.121595    -0.329143
| 21>  C    -4.680109     3.216729     0.197713
| 22>  O    -5.105055     0.872203    -0.123838
| 23>  C    -3.433260     3.985285     0.336892
| 24>  C     1.152398    -0.987497    -0.108542
| 25>  C     1.792094     1.341694     0.214865
| 26>  C    -6.026900     3.809775     0.234947
| 27>  O    -3.199090     5.144664     0.492355
| 28>  C     2.132854    -0.004732     0.060791
| 29>  C    -7.169665     2.991350     0.246262
| 30>  C    -6.197791     5.203853     0.258613
| 31>  C    -8.441108     3.555088     0.279446
| 32>  C    -7.473361     5.758156     0.290102
| 33>  C    -8.600541     4.939199     0.300428
| 34>  H     0.188458     2.803980     0.325503
| 35>  H    -4.572385     0.033002    -0.220746
| 36>  H     1.397008    -2.042320    -0.230438
| 37>  H     2.581365     2.083432     0.347606
| 38>  H     3.183743    -0.299540     0.073185
| 39>  H    -7.060246     1.908289     0.229395
| 40>  H    -5.322888     5.852493     0.257171
| 41>  H    -9.317114     2.903242     0.288820
| 42>  H    -7.584816     6.844257     0.307513
| 43>  H    -9.599945     5.378427     0.325720
| 44> *
| 45>
| 46>                          ****END OF INPUT****
 Total Charge           Charge          ....    0
 Multiplicity           Mult            ....    1
 Number of Electrons    NEL             ....  158
Dispersion correction           -0.013713189
FINAL SINGLE POINT ENERGY     -1067.662820130879
Dispersion correction                    ... done
Dispersion correction           -0.013643431
FINAL SINGLE POINT ENERGY     -1067.671727324149
Dispersion correction                    ... done
Dispersion correction           -0.013651291
FINAL SINGLE POINT ENERGY     -1067.671040752268
Dispersion correction                    ... done
FINAL SINGLE POINT ENERGY     -1067.708258055896
FINAL SINGLE POINT ENERGY     -1067.706114544280
FINAL SINGLE POINT ENERGY     -1067.715652235849
FINAL SINGLE POINT ENERGY     -1067.717911807013
FINAL SINGLE POINT ENERGY     -1067.718865443635
FINAL SINGLE POINT ENERGY     -1067.720560350742
FINAL SINGLE POINT ENERGY     -1067.722311944233
FINAL SINGLE POINT ENERGY     -1067.726203093551
FINAL SINGLE POINT ENERGY     -1067.730619967039
FINAL SINGLE POINT ENERGY     -1067.732743174555
FINAL SINGLE POINT ENERGY     -1067.733513056329
FINAL SINGLE POINT ENERGY     -1067.733750577803
FINAL SINGLE POINT ENERGY     -1067.733809204126
FINAL SINGLE POINT ENERGY     -1067.733828501113
Dispersion correction                    ... done
Dispersion correction           -0.013703955
FINAL SINGLE POINT ENERGY     -1067.733827285137
Dispersion correction                    ... done
Dispersion correction           -0.013703875
FINAL SINGLE POINT ENERGY     -1067.733833511830
Dispersion correction                    ... done
                    ***********************HURRAY********************

CARTESIAN COORDINATES (ANGSTROEM)
---------------------------------
  C     -1.997621    0.752082   -0.039397
  C     -2.868298    1.843276    0.044447
  C     -0.554705    0.769052    0.027960
  C     -2.388954   -0.603644   -0.191477
  C     -4.298990    1.912456    0.018186
  O     -2.371404    3.091239    0.192404
  C     -0.149680   -0.599237   -0.081577
  C      0.416209    1.750079    0.162859
  O     -1.190112   -1.404229   -0.209896
  O     -3.462353   -1.178087   -0.301087
  C     -4.673738    3.252897    0.163123
  O     -5.110532    0.878813   -0.117397
  C     -3.440969    4.017117    0.271251
  C      1.192705   -1.010353   -0.052053
  C      1.756949    1.344987    0.188286
  C     -6.014169    3.824110    0.217528
  O     -3.185172    5.188717    0.404404
  C      2.142497   -0.015808    0.084130
  C     -7.161031    3.001335    0.175310
  C     -6.195039    5.220262    0.320998
  C     -8.431934    3.556419    0.236613
  C     -7.472026    5.763511    0.380175
  C     -8.597070    4.938729    0.340120
  H      0.137406    2.799576    0.245747
  H     -4.586762    0.031722   -0.203325
  H      1.448224   -2.066442   -0.133703
  H      2.535729    2.102596    0.293332
  H      3.201374   -0.275111    0.112622
  H     -7.045464    1.921809    0.096281
  H     -5.316644    5.864167    0.356316
  H     -9.305364    2.901642    0.204879
  H     -7.590728    6.846024    0.459932
  H     -9.599105    5.369904    0.390393

 Multiplicity           Mult            ....    1
 Number of Electrons    NEL             ....  158
 Basis Dimension        Dim             ....  372

ORBITAL ENERGIES
----------------

  NO   OCC          E(Eh)            E(eV)
   0   2.0000     -19.338428      -526.2254
   1   2.0000     -19.328073      -525.9436
   2   2.0000     -19.312020      -525.5068
   3   2.0000     -19.289969      -524.9067
   4   2.0000     -19.272287      -524.4256
   5   2.0000     -10.469805      -284.8979
   6   2.0000     -10.454862      -284.4913
   7   2.0000     -10.430159      -283.8190
   8   2.0000     -10.411603      -283.3141
   9   2.0000     -10.375813      -282.3402
  10   2.0000     -10.355401      -281.7848
  11   2.0000     -10.339088      -281.3409
  12   2.0000     -10.325955      -280.9835
  13   2.0000     -10.321692      -280.8675
  14   2.0000     -10.318694      -280.7860
  15   2.0000     -10.318492      -280.7804
  16   2.0000     -10.315123      -280.6888
  17   2.0000     -10.308885      -280.5190
  18   2.0000     -10.303135      -280.3626
  19   2.0000     -10.301523      -280.3187
  20   2.0000     -10.300592      -280.2934
  21   2.0000     -10.300441      -280.2893
  22   2.0000     -10.299893      -280.2743
  23   2.0000      -1.277950       -34.7748
  24   2.0000      -1.268987       -34.5309
  25   2.0000      -1.224769       -33.3277
  26   2.0000      -1.194076       -32.4925
  27   2.0000      -1.183726       -32.2108
  28   2.0000      -1.002445       -27.2779
  29   2.0000      -0.994549       -27.0630
  30   2.0000      -0.971777       -26.4434
  31   2.0000      -0.956773       -26.0351
  32   2.0000      -0.896210       -24.3871
  33   2.0000      -0.877431       -23.8761
  34   2.0000      -0.870040       -23.6750
  35   2.0000      -0.866520       -23.5792
  36   2.0000      -0.848019       -23.0758
  37   2.0000      -0.774877       -21.0855
  38   2.0000      -0.765600       -20.8330
  39   2.0000      -0.745835       -20.2952
  40   2.0000      -0.739080       -20.1114
  41   2.0000      -0.716989       -19.5103
  42   2.0000      -0.709787       -19.3143
  43   2.0000      -0.699224       -19.0268
  44   2.0000      -0.667923       -18.1751
  45   2.0000      -0.639551       -17.4031
  46   2.0000      -0.629591       -17.1320
  47   2.0000      -0.626482       -17.0474
  48   2.0000      -0.621364       -16.9082
  49   2.0000      -0.604475       -16.4486
  50   2.0000      -0.603282       -16.4161
  51   2.0000      -0.592994       -16.1362
  52   2.0000      -0.577705       -15.7202
  53   2.0000      -0.567052       -15.4303
  54   2.0000      -0.561590       -15.2816
  55   2.0000      -0.549545       -14.9539
  56   2.0000      -0.546456       -14.8698
  57   2.0000      -0.544110       -14.8060
  58   2.0000      -0.537730       -14.6324
  59   2.0000      -0.523172       -14.2362
  60   2.0000      -0.517351       -14.0778
  61   2.0000      -0.516644       -14.0586
  62   2.0000      -0.511480       -13.9181
  63   2.0000      -0.503195       -13.6926
  64   2.0000      -0.493965       -13.4415
  65   2.0000      -0.484303       -13.1785
  66   2.0000      -0.479275       -13.0417
  67   2.0000      -0.461298       -12.5526
  68   2.0000      -0.454523       -12.3682
  69   2.0000      -0.452674       -12.3179
  70   2.0000      -0.440370       -11.9831
  71   2.0000      -0.415960       -11.3189
  72   2.0000      -0.414617       -11.2823
  73   2.0000      -0.398264       -10.8373
  74   2.0000      -0.396502       -10.7894
  75   2.0000      -0.349403        -9.5077
  76   2.0000      -0.345358        -9.3977
  77   2.0000      -0.325916        -8.8686
  78   2.0000      -0.298822        -8.1314
  79   0.0000      -0.073348        -1.9959
  80   0.0000       0.048171         1.3108
  81   0.0000       0.051764         1.4086
  82   0.0000       0.063354         1.7240
  83   0.0000       0.068353         1.8600

MULLIKEN ATOMIC CHARGES
-----------------------
   0 C :   -0.080399
   1 C :    0.244908
   2 C :   -0.013201
   3 C :    0.261673
   4 C :    0.017765
   5 O :   -0.242130
   6 C :    0.156693
   7 C :   -0.031723
   8 O :   -0.228848
   9 O :   -0.252267
  10 C :   -0.028196
  11 O :   -0.167755
  12 C :    0.260044
  13 C :   -0.010550
  14 C :    0.000782
  15 C :   -0.020440
  16 O :   -0.179850
  17 C :    0.021116
  18 C :   -0.024494
  19 C :   -0.025948
  20 C :    0.019716
  21 C :    0.019720
  22 C :    0.009375
  23 H :    0.015410
  24 H :    0.181499
  25 H :    0.020994
  26 H :    0.012641
  27 H :    0.016095
  28 H :    0.011169
  29 H :    0.015364
  30 H :    0.006613
  31 H :    0.007763
  32 H :    0.006464
Sum of atomic charges:   -0.0000000

LOEWDIN ATOMIC CHARGES
----------------------
   0 C :   -0.108950
   1 C :    0.014109
   2 C :   -0.064716
   3 C :   -0.047957
   4 C :   -0.049613
   5 O :    0.124562
   6 C :   -0.044584
   7 C :   -0.008967
   8 O :    0.129511
   9 O :   -0.006589
  10 C :   -0.086129
  11 O :    0.119447
  12 C :   -0.078858
  13 C :   -0.050907
  14 C :   -0.040528
  15 C :   -0.041767
  16 O :    0.010879
  17 C :   -0.010880
  18 C :   -0.012709
  19 C :   -0.010476
  20 C :   -0.030177
  21 C :   -0.029489
  22 C :   -0.020424
  23 H :    0.038124
  24 H :    0.028863
  25 H :    0.040328
  26 H :    0.034266
  27 H :    0.038308
  28 H :    0.029889
  29 H :    0.031891
  30 H :    0.034738
  31 H :    0.035144
  32 H :    0.033662

  Mayer bond orders larger than 0.100000
B(  0-C ,  1-C ) :   1.4312 B(  0-C ,  2-C ) :   1.1141 B(  0-C ,  3-C ) :   1.0628
B(  1-C ,  4-C ) :   1.0104 B(  1-C ,  5-O ) :   1.1466 B(  2-C ,  6-C ) :   1.2731
B(  2-C ,  7-C ) :   1.4382 B(  3-C ,  8-O ) :   1.0889 B(  3-C ,  9-O ) :   2.0073
B(  4-C , 10-C ) :   1.4800 B(  4-C , 11-O ) :   1.3627 B(  5-O , 12-C ) :   0.9867
B(  6-C ,  8-O ) :   1.0970 B(  6-C , 13-C ) :   1.4505 B(  7-C , 14-C ) :   1.4630
B(  7-C , 23-H ) :   0.9366 B(  9-O , 24-H ) :   0.1752 B( 10-C , 12-C ) :   1.0534
B( 10-C , 15-C ) :   1.0632 B( 11-O , 24-H ) :   0.8840 B( 12-C , 16-O ) :   2.2014
B( 13-C , 17-C ) :   1.4613 B( 13-C , 25-H ) :   0.9347 B( 14-C , 17-C ) :   1.4379
B( 14-C , 26-H ) :   0.9496 B( 15-C , 18-C ) :   1.4197 B( 15-C , 19-C ) :   1.4160
B( 17-C , 27-H ) :   0.9535 B( 18-C , 20-C ) :   1.4808 B( 18-C , 28-H ) :   0.9338
B( 19-C , 21-C ) :   1.4764 B( 19-C , 29-H ) :   0.9335 B( 20-C , 22-C ) :   1.4441
B( 20-C , 30-H ) :   0.9484 B( 21-C , 22-C ) :   1.4440 B( 21-C , 31-H ) :   0.9494
B( 22-C , 32-H ) :   0.9555

-----------------------------------------------------------------------------
         ABSORPTION SPECTRUM VIA TRANSITION ELECTRIC DIPOLE MOMENTS
-----------------------------------------------------------------------------
State   Energy    Wavelength  fosc         T2        TX        TY        TZ
        (cm-1)      (nm)                 (au**2)    (au)      (au)      (au)
-----------------------------------------------------------------------------
   1   24323.4    411.1   0.857735052  11.60928   2.46844  -2.34034  -0.19724
   2   27440.8    364.4   0.002826556   0.03391   0.05184   0.17670   0.00058
   3   33621.8    297.4   0.321994039   3.15284   1.53156  -0.89737  -0.04368
   4   34355.6    291.1   0.000212132   0.00203   0.01814   0.02609  -0.03198
   5   35203.5    284.1   0.010964795   0.10254  -0.03189   0.31803   0.01956
   6   37701.6    265.2   0.000106847   0.00093   0.00379  -0.00073   0.03030
   7   42288.2    236.5   0.339126226   2.64008   1.42457  -0.78001  -0.04780
   8   43240.7    231.3   0.051750185   0.39400   0.24642  -0.57598  -0.03906
   9   45331.6    220.6   0.005460857   0.03966  -0.07829  -0.18295  -0.00768
  10   46246.9    216.2   0.120126400   0.85513  -0.22937  -0.88746  -0.12221

Dispersion correction           -0.013703981
FINAL SINGLE POINT ENERGY     -1067.733833031197

DIPOLE MOMENT
-------------
                                X             Y             Z
Electronic contribution:      5.72325      -6.25068      -0.82253
Nuclear contribution   :     -3.64311       5.24705       0.82775
                        -----------------------------------------
Total Dipole Moment    :      2.08014      -1.00364       0.00522
                        -----------------------------------------
Magnitude (a.u.)       :      2.30961
Magnitude (Debye)      :      5.87057

Rotational constants in cm-1:     0.024157     0.004444     0.003754
Rotational constants in MHz :   724.194295   133.215571   112.552139

                             ****ORCA TERMINATED NORMALLY****
TOTAL RUN TIME: 0 days 18 hours 52 minutes 27 seconds 487 msec
