                         Program Version 5.0.3 -  RELEASE  -
|  1> ! wB97x-D3 cc-pvdz opt
|  2>
|  3> %tddft
|  4>  nroots 10
|  5>  tda TRUE
|  6>  IRoot 5
|  7>  followiroot true
|  8> end
|  9>
| 10> *xyz 0 1
| 11>  C    -1.984740     0.794106    -0.021524
| 12>  C    -2.838475     1.841678     0.081520
| 13>  C    -0.527088     0.785060     0.038111
| 14>  C    -2.376788    -0.615742    -0.217535
| 15>  C    -4.313726     1.911387     0.039093
| 16>  O    -2.346433     3.080298     0.258183
| 17>  C    -0.156560    -0.552710    -0.113631
| 18>  C     0.458919     1.755271     0.205109
| 19>  O    -1.258556    -1.379171    -0.266564
| 20>  O    -3.476969    -1.121595    -0.329143
| 21>  C    -4.680109     3.216729     0.197713
| 22>  O    -5.105055     0.872203    -0.123838
| 23>  C    -3.433260     3.985285     0.336892
| 24>  C     1.152398    -0.987497    -0.108542
| 25>  C     1.792094     1.341694     0.214865
| 26>  C    -6.026900     3.809775     0.234947
| 27>  O    -3.199090     5.144664     0.492355
| 28>  C     2.132854    -0.004732     0.060791
| 29>  C    -7.169665     2.991350     0.246262
| 30>  C    -6.197791     5.203853     0.258613
| 31>  C    -8.441108     3.555088     0.279446
| 32>  C    -7.473361     5.758156     0.290102
| 33>  C    -8.600541     4.939199     0.300428
| 34>  H     0.188458     2.803980     0.325503
| 35>  H    -4.572385     0.033002    -0.220746
| 36>  H     1.397008    -2.042320    -0.230438
| 37>  H     2.581365     2.083432     0.347606
| 38>  H     3.183743    -0.299540     0.073185
| 39>  H    -7.060246     1.908289     0.229395
| 40>  H    -5.322888     5.852493     0.257171
| 41>  H    -9.317114     2.903242     0.288820
| 42>  H    -7.584816     6.844257     0.307513
| 43>  H    -9.599945     5.378427     0.325720
| 44> *
| 45>
| 46>                          ****END OF INPUT****
 Total Charge           Charge          ....    0
 Multiplicity           Mult            ....    1
 Number of Electrons    NEL             ....  158
Dispersion correction           -0.013713189
FINAL SINGLE POINT ENERGY     -1067.698696229552
Dispersion correction                    ... done
Dispersion correction           -0.013661019
FINAL SINGLE POINT ENERGY     -1067.721739991707
Dispersion correction                    ... done
Dispersion correction           -0.013702886
FINAL SINGLE POINT ENERGY     -1067.707122576384
Dispersion correction                    ... done
FINAL SINGLE POINT ENERGY     -1067.710462336794
FINAL SINGLE POINT ENERGY     -1067.711715599910
FINAL SINGLE POINT ENERGY     -1067.712105628485
FINAL SINGLE POINT ENERGY     -1067.712194774179
FINAL SINGLE POINT ENERGY     -1067.712685579251
FINAL SINGLE POINT ENERGY     -1067.712841571064
FINAL SINGLE POINT ENERGY     -1067.713427087527
FINAL SINGLE POINT ENERGY     -1067.682117914543
FINAL SINGLE POINT ENERGY     -1067.718576522382
FINAL SINGLE POINT ENERGY     -1067.719505017708
FINAL SINGLE POINT ENERGY     -1067.720679531911
FINAL SINGLE POINT ENERGY     -1067.720977710876
FINAL SINGLE POINT ENERGY     -1067.721072816448
FINAL SINGLE POINT ENERGY     -1067.721086175942
Dispersion correction                    ... done
Dispersion correction           -0.013648892
FINAL SINGLE POINT ENERGY     -1067.721086715969
Dispersion correction                    ... done
Dispersion correction           -0.013648811
FINAL SINGLE POINT ENERGY     -1067.721085292150
Dispersion correction                    ... done
                    ***********************HURRAY********************

CARTESIAN COORDINATES (ANGSTROEM)
---------------------------------
  C     -1.967226    0.767731    0.028537
  C     -2.887484    1.800405    0.070797
  C     -0.520539    0.783160    0.031745
  C     -2.356566   -0.632179   -0.016061
  C     -4.304915    1.843814    0.083394
  O     -2.414606    3.099743    0.126295
  C     -0.136082   -0.565944   -0.006295
  C      0.467320    1.770362    0.061719
  O     -1.229897   -1.405219   -0.036101
  O     -3.464211   -1.155371   -0.033092
  C     -4.704382    3.196874    0.158852
  O     -5.134256    0.816895    0.041053
  C     -3.491089    3.901287    0.180086
  C      1.179554   -0.981609   -0.011142
  C      1.804646    1.371405    0.055602
  C     -6.038274    3.802128    0.205644
  O     -3.271445    5.162389    0.236687
  C      2.157123    0.019334    0.020843
  C     -7.185215    3.043845   -0.076482
  C     -6.192713    5.153906    0.540652
  C     -8.444303    3.635894   -0.028071
  C     -7.451570    5.742341    0.583261
  C     -8.585898    4.982051    0.301657
  H      0.198214    2.826427    0.088654
  H     -4.596580   -0.032742    0.007629
  H      1.434423   -2.041018   -0.038237
  H      2.589733    2.129543    0.078605
  H      3.211154   -0.264455    0.018059
  H     -7.082382    1.988984   -0.328574
  H     -5.312710    5.756903    0.793247
  H     -9.325645    3.033882   -0.258104
  H     -7.544755    6.799014    0.840759
  H     -9.576194    5.439830    0.335763

 Multiplicity           Mult            ....    1
 Number of Electrons    NEL             ....  158
 Basis Dimension        Dim             ....  372

ORBITAL ENERGIES
----------------

  NO   OCC          E(Eh)            E(eV)
   0   2.0000     -19.342480      -526.3357
   1   2.0000     -19.341089      -526.2978
   2   2.0000     -19.305254      -525.3227
   3   2.0000     -19.286478      -524.8118
   4   2.0000     -19.241165      -523.5787
   5   2.0000     -10.471491      -284.9438
   6   2.0000     -10.435708      -283.9701
   7   2.0000     -10.426282      -283.7135
   8   2.0000     -10.409504      -283.2570
   9   2.0000     -10.384569      -282.5785
  10   2.0000     -10.360507      -281.9237
  11   2.0000     -10.337753      -281.3045
  12   2.0000     -10.331413      -281.1320
  13   2.0000     -10.328913      -281.0640
  14   2.0000     -10.328245      -281.0458
  15   2.0000     -10.326648      -281.0024
  16   2.0000     -10.319290      -280.8022
  17   2.0000     -10.316271      -280.7200
  18   2.0000     -10.298696      -280.2418
  19   2.0000     -10.298242      -280.2294
  20   2.0000     -10.296455      -280.1808
  21   2.0000     -10.294930      -280.1393
  22   2.0000     -10.293011      -280.0871
  23   2.0000      -1.286169       -34.9984
  24   2.0000      -1.282296       -34.8930
  25   2.0000      -1.219908       -33.1954
  26   2.0000      -1.190932       -32.4069
  27   2.0000      -1.124238       -30.5921
  28   2.0000      -1.015996       -27.6467
  29   2.0000      -0.992109       -26.9967
  30   2.0000      -0.977634       -26.6028
  31   2.0000      -0.957300       -26.0495
  32   2.0000      -0.901412       -24.5287
  33   2.0000      -0.894769       -24.3479
  34   2.0000      -0.870871       -23.6976
  35   2.0000      -0.864798       -23.5323
  36   2.0000      -0.846322       -23.0296
  37   2.0000      -0.776709       -21.1353
  38   2.0000      -0.767718       -20.8907
  39   2.0000      -0.752863       -20.4864
  40   2.0000      -0.742791       -20.2124
  41   2.0000      -0.715904       -19.4807
  42   2.0000      -0.709000       -19.2929
  43   2.0000      -0.700203       -19.0535
  44   2.0000      -0.673909       -18.3380
  45   2.0000      -0.641474       -17.4554
  46   2.0000      -0.630465       -17.1558
  47   2.0000      -0.628962       -17.1149
  48   2.0000      -0.617134       -16.7931
  49   2.0000      -0.609931       -16.5971
  50   2.0000      -0.607821       -16.5397
  51   2.0000      -0.592684       -16.1278
  52   2.0000      -0.577657       -15.7188
  53   2.0000      -0.567762       -15.4496
  54   2.0000      -0.554539       -15.0898
  55   2.0000      -0.549715       -14.9585
  56   2.0000      -0.546041       -14.8585
  57   2.0000      -0.535737       -14.5781
  58   2.0000      -0.532146       -14.4804
  59   2.0000      -0.524333       -14.2678
  60   2.0000      -0.521949       -14.2030
  61   2.0000      -0.514358       -13.9964
  62   2.0000      -0.510299       -13.8859
  63   2.0000      -0.494186       -13.4475
  64   2.0000      -0.491479       -13.3738
  65   2.0000      -0.487941       -13.2775
  66   2.0000      -0.473497       -12.8845
  67   2.0000      -0.464430       -12.6378
  68   2.0000      -0.455646       -12.3988
  69   2.0000      -0.446277       -12.1438
  70   2.0000      -0.436787       -11.8856
  71   2.0000      -0.416158       -11.3242
  72   2.0000      -0.415163       -11.2971
  73   2.0000      -0.386188       -10.5087
  74   2.0000      -0.371436       -10.1073
  75   2.0000      -0.358075        -9.7437
  76   2.0000      -0.341095        -9.2817
  77   2.0000      -0.338934        -9.2229
  78   2.0000      -0.299366        -8.1462
  79   0.0000      -0.073750        -2.0068
  80   0.0000       0.041303         1.1239
  81   0.0000       0.052554         1.4301
  82   0.0000       0.061487         1.6732
  83   0.0000       0.070070         1.9067

MULLIKEN ATOMIC CHARGES
-----------------------
   0 C :   -0.123232
   1 C :    0.239700
   2 C :    0.032534
   3 C :    0.288514
   4 C :    0.008745
   5 O :   -0.199746
   6 C :    0.147353
   7 C :   -0.037107
   8 O :   -0.213855
   9 O :   -0.268471
  10 C :    0.010848
  11 O :   -0.172110
  12 C :    0.222810
  13 C :   -0.008486
  14 C :    0.016875
  15 C :   -0.017441
  16 O :   -0.266831
  17 C :    0.017320
  18 C :   -0.021429
  19 C :   -0.019516
  20 C :    0.016317
  21 C :    0.015424
  22 C :    0.009922
  23 H :    0.023575
  24 H :    0.187237
  25 H :    0.027300
  26 H :    0.019223
  27 H :    0.020748
  28 H :    0.007188
  29 H :    0.021009
  30 H :    0.004486
  31 H :    0.006410
  32 H :    0.004686
Sum of atomic charges:   -0.0000000

LOEWDIN ATOMIC CHARGES
----------------------
   0 C :   -0.095937
   1 C :    0.017957
   2 C :   -0.055526
   3 C :   -0.079183
   4 C :   -0.048808
   5 O :    0.159744
   6 C :   -0.020999
   7 C :    0.000510
   8 O :    0.146467
   9 O :   -0.009707
  10 C :   -0.074148
  11 O :    0.114071
  12 C :   -0.097314
  13 C :   -0.039599
  14 C :   -0.032232
  15 C :   -0.041538
  16 O :   -0.090712
  17 C :   -0.006799
  18 C :   -0.011186
  19 C :   -0.005036
  20 C :   -0.031999
  21 C :   -0.030116
  22 C :   -0.021270
  23 H :    0.042626
  24 H :    0.019924
  25 H :    0.044222
  26 H :    0.039227
  27 H :    0.040307
  28 H :    0.030607
  29 H :    0.035351
  30 H :    0.033548
  31 H :    0.034651
  32 H :    0.032896

  Mayer bond orders larger than 0.100000
B(  0-C ,  1-C ) :   1.4553 B(  0-C ,  2-C ) :   1.1003 B(  0-C ,  3-C ) :   1.0472
B(  1-C ,  4-C ) :   1.0116 B(  1-C ,  5-O ) :   1.0901 B(  2-C ,  6-C ) :   1.2883
B(  2-C ,  7-C ) :   1.4357 B(  3-C ,  8-O ) :   1.1890 B(  3-C ,  9-O ) :   1.9825
B(  4-C , 10-C ) :   1.4575 B(  4-C , 11-O ) :   1.3804 B(  5-O , 12-C ) :   1.0968
B(  6-C ,  8-O ) :   1.0218 B(  6-C , 13-C ) :   1.4787 B(  7-C , 14-C ) :   1.4564
B(  7-C , 23-H ) :   0.9405 B(  9-O , 24-H ) :   0.1855 B( 10-C , 12-C ) :   1.0900
B( 10-C , 15-C ) :   1.0531 B( 11-O , 24-H ) :   0.8749 B( 12-C , 16-O ) :   2.0828
B( 13-C , 17-C ) :   1.4389 B( 13-C , 25-H ) :   0.9327 B( 14-C , 17-C ) :   1.4555
B( 14-C , 26-H ) :   0.9503 B( 15-C , 18-C ) :   1.4213 B( 15-C , 19-C ) :   1.4199
B( 17-C , 27-H ) :   0.9535 B( 18-C , 20-C ) :   1.4741 B( 18-C , 28-H ) :   0.9389
B( 19-C , 21-C ) :   1.4765 B( 19-C , 29-H ) :   0.9308 B( 20-C , 22-C ) :   1.4487
B( 20-C , 30-H ) :   0.9496 B( 21-C , 22-C ) :   1.4415 B( 21-C , 31-H ) :   0.9502
B( 22-C , 32-H ) :   0.9557

-----------------------------------------------------------------------------
         ABSORPTION SPECTRUM VIA TRANSITION ELECTRIC DIPOLE MOMENTS
-----------------------------------------------------------------------------
State   Energy    Wavelength  fosc         T2        TX        TY        TZ
        (cm-1)      (nm)                 (au**2)    (au)      (au)      (au)
-----------------------------------------------------------------------------
   1   24548.5    407.4   0.818679179  10.97904   2.43521  -2.24427  -0.10960
   2   28801.8    347.2   0.001798638   0.02056  -0.11945   0.07498  -0.02585
   3   30691.5    325.8   0.226519698   2.42976  -1.12343   1.07998   0.03596
   4   34318.1    291.4   0.019425511   0.18635  -0.42592  -0.03794  -0.05914
   5   35075.3    285.1   0.242493897   2.27601  -1.31819   0.73205   0.04991
   6   37491.2    266.7   0.000313101   0.00275  -0.02087  -0.03865   0.02863
   7   41342.3    241.9   0.048907052   0.38945  -0.49096  -0.38522  -0.00338
   8   43475.7    230.0   0.256774631   1.94438  -1.05322   0.91291   0.04135
   9   45373.7    220.4   0.003884018   0.02818  -0.13859  -0.08698  -0.03753
  10   46773.1    213.8   0.121841413   0.85758   0.66089   0.64831   0.02218

Dispersion correction           -0.013648712
FINAL SINGLE POINT ENERGY     -1067.721084618824

DIPOLE MOMENT
-------------
                                X             Y             Z
Electronic contribution:      3.60331      -4.26059      -0.36347
Nuclear contribution   :     -3.47301       5.43285       0.42428
                        -----------------------------------------
Total Dipole Moment    :      0.13030       1.17225       0.06082
                        -----------------------------------------
Magnitude (a.u.)       :      1.18104
Magnitude (Debye)      :      3.00197

Rotational constants in cm-1:     0.024459     0.004431     0.003758
Rotational constants in MHz :   733.255955   132.845672   112.664592

                             ****ORCA TERMINATED NORMALLY****
TOTAL RUN TIME: 0 days 22 hours 39 minutes 17 seconds 868 msec
