                         Program Version 5.0.3 -  RELEASE  -
|  1> ! wB97x-D3 cc-pvdz opt
|  2>
|  3> %tddft
|  4>  nroots 10
|  5>  tda TRUE
|  6>  IRoot 10
|  7> end
|  8>
|  9> *xyz 0 1
| 10>  C    -1.984740     0.794106    -0.021524
| 11>  C    -2.838475     1.841678     0.081520
| 12>  C    -0.527088     0.785060     0.038111
| 13>  C    -2.376788    -0.615742    -0.217535
| 14>  C    -4.313726     1.911387     0.039093
| 15>  O    -2.346433     3.080298     0.258183
| 16>  C    -0.156560    -0.552710    -0.113631
| 17>  C     0.458919     1.755271     0.205109
| 18>  O    -1.258556    -1.379171    -0.266564
| 19>  O    -3.476969    -1.121595    -0.329143
| 20>  C    -4.680109     3.216729     0.197713
| 21>  O    -5.105055     0.872203    -0.123838
| 22>  C    -3.433260     3.985285     0.336892
| 23>  C     1.152398    -0.987497    -0.108542
| 24>  C     1.792094     1.341694     0.214865
| 25>  C    -6.026900     3.809775     0.234947
| 26>  O    -3.199090     5.144664     0.492355
| 27>  C     2.132854    -0.004732     0.060791
| 28>  C    -7.169665     2.991350     0.246262
| 29>  C    -6.197791     5.203853     0.258613
| 30>  C    -8.441108     3.555088     0.279446
| 31>  C    -7.473361     5.758156     0.290102
| 32>  C    -8.600541     4.939199     0.300428
| 33>  H     0.188458     2.803980     0.325503
| 34>  H    -4.572385     0.033002    -0.220746
| 35>  H     1.397008    -2.042320    -0.230438
| 36>  H     2.581365     2.083432     0.347606
| 37>  H     3.183743    -0.299540     0.073185
| 38>  H    -7.060246     1.908289     0.229395
| 39>  H    -5.322888     5.852493     0.257171
| 40>  H    -9.317114     2.903242     0.288820
| 41>  H    -7.584816     6.844257     0.307513
| 42>  H    -9.599945     5.378427     0.325720
| 43> *
| 44>
| 45>                          ****END OF INPUT****
 Total Charge           Charge          ....    0
 Multiplicity           Mult            ....    1
 Number of Electrons    NEL             ....  158
Dispersion correction           -0.013713189
FINAL SINGLE POINT ENERGY     -1067.652350620056
Dispersion correction                    ... done
Dispersion correction           -0.013697956
FINAL SINGLE POINT ENERGY     -1067.659066849913
Dispersion correction                    ... done
Dispersion correction           -0.013744187
FINAL SINGLE POINT ENERGY     -1067.657641046403
Dispersion correction                    ... done
FINAL SINGLE POINT ENERGY     -1067.659442284517
FINAL SINGLE POINT ENERGY     -1067.659228742071
FINAL SINGLE POINT ENERGY     -1067.660076534747
FINAL SINGLE POINT ENERGY     -1067.660115254069
FINAL SINGLE POINT ENERGY     -1067.660042047290
FINAL SINGLE POINT ENERGY     -1067.660141970454
Dispersion correction                    ... done
Dispersion correction           -0.013710295
FINAL SINGLE POINT ENERGY     -1067.660169961330
Dispersion correction                    ... done
Dispersion correction           -0.013711257
FINAL SINGLE POINT ENERGY     -1067.660167781154
Dispersion correction                    ... done
                    ***********************HURRAY********************

CARTESIAN COORDINATES (ANGSTROEM)
---------------------------------
  C     -1.985695    0.798844   -0.008152
  C     -2.830486    1.870167    0.101873
  C     -0.534245    0.779596    0.037863
  C     -2.397520   -0.597977   -0.192555
  C     -4.291218    1.931326    0.065420
  O     -2.331909    3.099792    0.272205
  C     -0.175442   -0.567055   -0.111341
  C      0.453518    1.760085    0.188071
  O     -1.284322   -1.380428   -0.248744
  O     -3.508682   -1.094547   -0.293316
  C     -4.680990    3.258228    0.232340
  O     -5.082358    0.902462   -0.106077
  C     -3.418759    4.029009    0.380150
  C      1.139162   -1.014390   -0.116612
  C      1.787789    1.332172    0.182259
  C     -5.999060    3.808430    0.252606
  O     -3.168766    5.190298    0.550664
  C      2.119677   -0.023172    0.034618
  C     -7.162985    2.961632    0.233486
  C     -6.196783    5.241622    0.287473
  C     -8.429905    3.504930    0.238173
  C     -7.477414    5.755548    0.285040
  C     -8.605020    4.909886    0.258813
  H      0.184446    2.808897    0.304036
  H     -4.549696    0.047151   -0.195590
  H      1.383437   -2.069244   -0.230797
  H      2.586864    2.066470    0.295388
  H      3.171341   -0.316150    0.038000
  H     -7.035731    1.880597    0.222691
  H     -5.326479    5.896146    0.311523
  H     -9.299666    2.845719    0.227287
  H     -7.619741    6.838181    0.303403
  H     -9.610137    5.335385    0.257183

 Multiplicity           Mult            ....    1
 Number of Electrons    NEL             ....  158
 Basis Dimension        Dim             ....  372

ORBITAL ENERGIES
----------------

  NO   OCC          E(Eh)            E(eV)
   0   2.0000     -19.339445      -526.2530
   1   2.0000     -19.334330      -526.1139
   2   2.0000     -19.301239      -525.2134
   3   2.0000     -19.282623      -524.7069
   4   2.0000     -19.269917      -524.3611
   5   2.0000     -10.468451      -284.8610
   6   2.0000     -10.453278      -284.4482
   7   2.0000     -10.420819      -283.5649
   8   2.0000     -10.405455      -283.1468
   9   2.0000     -10.380160      -282.4585
  10   2.0000     -10.348699      -281.6024
  11   2.0000     -10.332141      -281.1519
  12   2.0000     -10.331459      -281.1333
  13   2.0000     -10.324457      -280.9427
  14   2.0000     -10.324435      -280.9422
  15   2.0000     -10.323552      -280.9181
  16   2.0000     -10.321188      -280.8538
  17   2.0000     -10.316303      -280.7209
  18   2.0000     -10.302568      -280.3471
  19   2.0000     -10.299998      -280.2772
  20   2.0000     -10.299630      -280.2672
  21   2.0000     -10.298764      -280.2436
  22   2.0000     -10.297990      -280.2226
  23   2.0000      -1.280547       -34.8454
  24   2.0000      -1.271635       -34.6029
  25   2.0000      -1.219968       -33.1970
  26   2.0000      -1.189809       -32.3763
  27   2.0000      -1.184281       -32.2259
  28   2.0000      -1.009082       -27.4585
  29   2.0000      -0.985810       -26.8252
  30   2.0000      -0.968066       -26.3424
  31   2.0000      -0.948123       -25.7997
  32   2.0000      -0.894293       -24.3349
  33   2.0000      -0.887842       -24.1594
  34   2.0000      -0.868063       -23.6212
  35   2.0000      -0.862243       -23.4628
  36   2.0000      -0.836867       -22.7723
  37   2.0000      -0.774551       -21.0766
  38   2.0000      -0.763302       -20.7705
  39   2.0000      -0.750577       -20.4242
  40   2.0000      -0.737177       -20.0596
  41   2.0000      -0.711994       -19.3743
  42   2.0000      -0.705917       -19.2090
  43   2.0000      -0.694306       -18.8930
  44   2.0000      -0.671508       -18.2727
  45   2.0000      -0.637633       -17.3509
  46   2.0000      -0.628740       -17.1089
  47   2.0000      -0.625273       -17.0146
  48   2.0000      -0.617175       -16.7942
  49   2.0000      -0.605023       -16.4635
  50   2.0000      -0.604504       -16.4494
  51   2.0000      -0.591516       -16.0960
  52   2.0000      -0.576158       -15.6781
  53   2.0000      -0.566889       -15.4258
  54   2.0000      -0.565267       -15.3817
  55   2.0000      -0.550448       -14.9785
  56   2.0000      -0.546349       -14.8669
  57   2.0000      -0.536719       -14.6049
  58   2.0000      -0.532991       -14.5034
  59   2.0000      -0.523567       -14.2470
  60   2.0000      -0.517755       -14.0888
  61   2.0000      -0.514903       -14.0112
  62   2.0000      -0.510951       -13.9037
  63   2.0000      -0.501601       -13.6493
  64   2.0000      -0.490436       -13.3454
  65   2.0000      -0.485888       -13.2217
  66   2.0000      -0.472769       -12.8647
  67   2.0000      -0.463656       -12.6167
  68   2.0000      -0.461722       -12.5641
  69   2.0000      -0.453667       -12.3449
  70   2.0000      -0.435746       -11.8573
  71   2.0000      -0.413303       -11.2465
  72   2.0000      -0.410964       -11.1829
  73   2.0000      -0.394781       -10.7425
  74   2.0000      -0.390909       -10.6372
  75   2.0000      -0.353346        -9.6150
  76   2.0000      -0.344493        -9.3741
  77   2.0000      -0.332263        -9.0413
  78   2.0000      -0.293132        -7.9765
  79   0.0000      -0.058336        -1.5874
  80   0.0000       0.043902         1.1946
  81   0.0000       0.047192         1.2842
  82   0.0000       0.063450         1.7266
  83   0.0000       0.070249         1.9116

MULLIKEN ATOMIC CHARGES
-----------------------
   0 C :   -0.147818
   1 C :    0.237113
   2 C :    0.036086
   3 C :    0.294145
   4 C :    0.021202
   5 O :   -0.245370
   6 C :    0.141418
   7 C :   -0.033907
   8 O :   -0.212818
   9 O :   -0.266182
  10 C :   -0.018375
  11 O :   -0.175724
  12 C :    0.255926
  13 C :   -0.009261
  14 C :    0.015805
  15 C :   -0.048341
  16 O :   -0.174720
  17 C :    0.012864
  18 C :   -0.018407
  19 C :   -0.021338
  20 C :    0.019278
  21 C :    0.019539
  22 C :   -0.000132
  23 H :    0.019856
  24 H :    0.190625
  25 H :    0.026084
  26 H :    0.016854
  27 H :    0.018387
  28 H :    0.011990
  29 H :    0.014771
  30 H :    0.006610
  31 H :    0.007145
  32 H :    0.006696
Sum of atomic charges:   -0.0000000

LOEWDIN ATOMIC CHARGES
----------------------
   0 C :   -0.113224
   1 C :   -0.005772
   2 C :   -0.052120
   3 C :   -0.081055
   4 C :   -0.052111
   5 O :    0.119811
   6 C :   -0.022656
   7 C :   -0.004459
   8 O :    0.147248
   9 O :   -0.001537
  10 C :   -0.102318
  11 O :    0.120941
  12 C :   -0.067316
  13 C :   -0.038467
  14 C :   -0.032248
  15 C :   -0.036244
  16 O :    0.014051
  17 C :   -0.012515
  18 C :   -0.014603
  19 C :   -0.011239
  20 C :   -0.032458
  21 C :   -0.033841
  22 C :   -0.019254
  23 H :    0.039345
  24 H :    0.012976
  25 H :    0.042855
  26 H :    0.037364
  27 H :    0.038534
  28 H :    0.029247
  29 H :    0.031029
  30 H :    0.034090
  31 H :    0.034427
  32 H :    0.031520

  Mayer bond orders larger than 0.100000
B(  0-C ,  1-C ) :   1.4748 B(  0-C ,  2-C ) :   1.1017 B(  0-C ,  3-C ) :   1.0451
B(  1-C ,  4-C ) :   0.9949 B(  1-C ,  5-O ) :   1.1580 B(  2-C ,  6-C ) :   1.2960
B(  2-C ,  7-C ) :   1.4360 B(  3-C ,  8-O ) :   1.1966 B(  3-C ,  9-O ) :   1.9659
B(  4-C , 10-C ) :   1.4776 B(  4-C , 11-O ) :   1.3820 B(  5-O , 12-C ) :   0.9671
B(  6-C ,  8-O ) :   1.0158 B(  6-C , 13-C ) :   1.4689 B(  7-C , 14-C ) :   1.4514
B(  7-C , 23-H ) :   0.9392 B(  9-O , 24-H ) :   0.2087 B( 10-C , 12-C ) :   1.0412
B( 10-C , 15-C ) :   1.0783 B( 11-O , 24-H ) :   0.8562 B( 12-C , 16-O ) :   2.2199
B( 13-C , 17-C ) :   1.4420 B( 13-C , 25-H ) :   0.9354 B( 14-C , 17-C ) :   1.4577
B( 14-C , 26-H ) :   0.9509 B( 15-C , 18-C ) :   1.4070 B( 15-C , 19-C ) :   1.3949
B( 17-C , 27-H ) :   0.9533 B( 18-C , 20-C ) :   1.4911 B( 18-C , 28-H ) :   0.9361
B( 19-C , 21-C ) :   1.4877 B( 19-C , 29-H ) :   0.9389 B( 20-C , 22-C ) :   1.4335
B( 20-C , 30-H ) :   0.9485 B( 21-C , 22-C ) :   1.4387 B( 21-C , 31-H ) :   0.9493
B( 22-C , 32-H ) :   0.9560

-----------------------------------------------------------------------------
         ABSORPTION SPECTRUM VIA TRANSITION ELECTRIC DIPOLE MOMENTS
-----------------------------------------------------------------------------
State   Energy    Wavelength  fosc         T2        TX        TY        TZ
        (cm-1)      (nm)                 (au**2)    (au)      (au)      (au)
-----------------------------------------------------------------------------
   1   25742.3    388.5   0.798106642  10.20680  -2.37878   2.12339   0.19855
   2   32292.4    309.7   0.265874567   2.71052  -1.20171   1.12072   0.10198
   3   36647.1    272.9   0.000486156   0.00437   0.01059  -0.05844   0.02898
   4   36768.2    272.0   0.192907106   1.72724   1.21049  -0.51080  -0.03222
   5   37496.7    266.7   0.013490908   0.11845   0.11202  -0.32522  -0.01148
   6   39607.0    252.5   0.000273423   0.00227   0.01733  -0.00151   0.04439
   7   43985.2    227.3   0.438506433   3.28205   1.71895  -0.57208  -0.00240
   8   44965.4    222.4   0.034026303   0.24912  -0.32209   0.37763   0.05268
   9   45252.1    221.0   0.011712466   0.08521  -0.00372  -0.29187   0.00245
  10   45424.8    220.1   0.035257275   0.25552   0.36689  -0.34770  -0.00455

Dispersion correction           -0.013711657
FINAL SINGLE POINT ENERGY     -1067.660164906260

DIPOLE MOMENT
-------------
                                X             Y             Z
Electronic contribution:      4.69988      -5.84872      -0.51168
Nuclear contribution   :     -3.62936       5.02380       0.43565
                        -----------------------------------------
Total Dipole Moment    :      1.07052      -0.82492      -0.07603
                        -----------------------------------------
Magnitude (a.u.)       :      1.35362
Magnitude (Debye)      :      3.44063

Rotational constants in cm-1:     0.024014     0.004475     0.003774
Rotational constants in MHz :   719.913081   134.167795   113.144814

                             ****ORCA TERMINATED NORMALLY****
TOTAL RUN TIME: 0 days 9 hours 55 minutes 26 seconds 358 msec
