                         Program Version 5.0.3 -  RELEASE  -
|  1> ! wB97x-D3 cc-pvdz opt
|  2>
|  3> %tddft
|  4>  nroots 10
|  5>  tda TRUE
|  6>  IRoot 1
|  7> end
|  8>
|  9> *xyz 0 1
| 10>  C    -1.984740     0.794106    -0.021524
| 11>  C    -2.838475     1.841678     0.081520
| 12>  C    -0.527088     0.785060     0.038111
| 13>  C    -2.376788    -0.615742    -0.217535
| 14>  C    -4.313726     1.911387     0.039093
| 15>  O    -2.346433     3.080298     0.258183
| 16>  C    -0.156560    -0.552710    -0.113631
| 17>  C     0.458919     1.755271     0.205109
| 18>  O    -1.258556    -1.379171    -0.266564
| 19>  O    -3.476969    -1.121595    -0.329143
| 20>  C    -4.680109     3.216729     0.197713
| 21>  O    -5.105055     0.872203    -0.123838
| 22>  C    -3.433260     3.985285     0.336892
| 23>  C     1.152398    -0.987497    -0.108542
| 24>  C     1.792094     1.341694     0.214865
| 25>  C    -6.026900     3.809775     0.234947
| 26>  O    -3.199090     5.144664     0.492355
| 27>  C     2.132854    -0.004732     0.060791
| 28>  C    -7.169665     2.991350     0.246262
| 29>  C    -6.197791     5.203853     0.258613
| 30>  C    -8.441108     3.555088     0.279446
| 31>  C    -7.473361     5.758156     0.290102
| 32>  C    -8.600541     4.939199     0.300428
| 33>  H     0.188458     2.803980     0.325503
| 34>  H    -4.572385     0.033002    -0.220746
| 35>  H     1.397008    -2.042320    -0.230438
| 36>  H     2.581365     2.083432     0.347606
| 37>  H     3.183743    -0.299540     0.073185
| 38>  H    -7.060246     1.908289     0.229395
| 39>  H    -5.322888     5.852493     0.257171
| 40>  H    -9.317114     2.903242     0.288820
| 41>  H    -7.584816     6.844257     0.307513
| 42>  H    -9.599945     5.378427     0.325720
| 43> *
| 44>
| 45>                          ****END OF INPUT****
 Total Charge           Charge          ....    0
 Multiplicity           Mult            ....    1
 Number of Electrons    NEL             ....  158
Dispersion correction           -0.013713189
FINAL SINGLE POINT ENERGY     -1067.744341568151
Dispersion correction                    ... done
Dispersion correction           -0.013631637
FINAL SINGLE POINT ENERGY     -1067.754128611888
Dispersion correction                    ... done
Dispersion correction           -0.013697264
FINAL SINGLE POINT ENERGY     -1067.749549811291
Dispersion correction                    ... done
FINAL SINGLE POINT ENERGY     -1067.757136449943
FINAL SINGLE POINT ENERGY     -1067.757609814219
FINAL SINGLE POINT ENERGY     -1067.757895004625
FINAL SINGLE POINT ENERGY     -1067.757452629823
FINAL SINGLE POINT ENERGY     -1067.758151667575
FINAL SINGLE POINT ENERGY     -1067.758232607794
FINAL SINGLE POINT ENERGY     -1067.758481734720
FINAL SINGLE POINT ENERGY     -1067.762030036555
FINAL SINGLE POINT ENERGY     -1067.763209246754
FINAL SINGLE POINT ENERGY     -1067.763143415859
FINAL SINGLE POINT ENERGY     -1067.764886087065
FINAL SINGLE POINT ENERGY     -1067.765281510674
FINAL SINGLE POINT ENERGY     -1067.765480535418
FINAL SINGLE POINT ENERGY     -1067.765527464416
Dispersion correction                    ... done
Dispersion correction           -0.013624340
FINAL SINGLE POINT ENERGY     -1067.765533924304
Dispersion correction                    ... done
Dispersion correction           -0.013623880
FINAL SINGLE POINT ENERGY     -1067.765542837699
Dispersion correction                    ... done
                    ***********************HURRAY********************

CARTESIAN COORDINATES (ANGSTROEM)
---------------------------------
  C     -1.985199    0.800019   -0.028086
  C     -2.855002    1.885021    0.042995
  C     -0.530485    0.777185    0.033127
  C     -2.350592   -0.551570   -0.171604
  C     -4.339555    1.918387    0.011204
  O     -2.411905    3.146596    0.188311
  C     -0.167423   -0.568735   -0.073191
  C      0.467926    1.744920    0.164716
  O     -1.288540   -1.368666   -0.199175
  O     -3.503273   -1.135679   -0.280812
  C     -4.708216    3.297607    0.159901
  O     -5.054804    0.906025   -0.121443
  C     -3.466035    4.065613    0.263854
  C      1.138350   -1.019115   -0.051616
  C      1.793987    1.316663    0.186041
  C     -6.030189    3.854524    0.214733
  O     -3.228800    5.241235    0.392274
  C      2.125778   -0.040538    0.081154
  C     -7.173047    3.015131    0.155182
  C     -6.222073    5.254341    0.338703
  C     -8.445150    3.557901    0.220712
  C     -7.502738    5.780931    0.401010
  C     -8.617544    4.940258    0.344821
  H      0.209081    2.800785    0.247221
  H     -4.216968   -0.424353   -0.236784
  H      1.374353   -2.079975   -0.133676
  H      2.591818    2.054528    0.287676
  H      3.174493   -0.342005    0.103486
  H     -7.031911    1.938755    0.059609
  H     -5.346973    5.901668    0.384952
  H     -9.315587    2.900604    0.177104
  H     -7.636961    6.859928    0.496123
  H     -9.623586    5.361620    0.398861

 Multiplicity           Mult            ....    1
 Number of Electrons    NEL             ....  158
 Basis Dimension        Dim             ....  372

ORBITAL ENERGIES
----------------

  NO   OCC          E(Eh)            E(eV)
   0   2.0000     -19.378970      -527.3286
   1   2.0000     -19.344590      -526.3931
   2   2.0000     -19.341658      -526.3133
   3   2.0000     -19.258410      -524.0480
   4   2.0000     -19.236611      -523.4548
   5   2.0000     -10.504690      -285.8471
   6   2.0000     -10.444873      -284.2195
   7   2.0000     -10.439510      -284.0735
   8   2.0000     -10.393998      -282.8351
   9   2.0000     -10.386418      -282.6288
  10   2.0000     -10.365635      -282.0633
  11   2.0000     -10.348225      -281.5895
  12   2.0000     -10.337927      -281.3093
  13   2.0000     -10.334245      -281.2091
  14   2.0000     -10.333308      -281.1836
  15   2.0000     -10.327750      -281.0324
  16   2.0000     -10.301061      -280.3061
  17   2.0000     -10.298468      -280.2356
  18   2.0000     -10.282127      -279.7909
  19   2.0000     -10.281130      -279.7638
  20   2.0000     -10.280899      -279.7575
  21   2.0000     -10.277959      -279.6775
  22   2.0000     -10.277508      -279.6652
  23   2.0000      -1.322816       -35.9956
  24   2.0000      -1.278799       -34.7979
  25   2.0000      -1.245350       -33.8877
  26   2.0000      -1.174131       -31.9497
  27   2.0000      -1.156730       -31.4762
  28   2.0000      -1.027938       -27.9716
  29   2.0000      -0.990535       -26.9538
  30   2.0000      -0.968560       -26.3558
  31   2.0000      -0.921392       -25.0723
  32   2.0000      -0.912490       -24.8301
  33   2.0000      -0.901735       -24.5375
  34   2.0000      -0.867113       -23.5953
  35   2.0000      -0.849711       -23.1218
  36   2.0000      -0.846900       -23.0453
  37   2.0000      -0.805962       -21.9313
  38   2.0000      -0.765011       -20.8170
  39   2.0000      -0.751731       -20.4557
  40   2.0000      -0.734315       -19.9817
  41   2.0000      -0.708614       -19.2824
  42   2.0000      -0.705984       -19.2108
  43   2.0000      -0.686520       -18.6812
  44   2.0000      -0.677870       -18.4458
  45   2.0000      -0.656277       -17.8582
  46   2.0000      -0.651983       -17.7414
  47   2.0000      -0.642497       -17.4832
  48   2.0000      -0.612344       -16.6627
  49   2.0000      -0.611242       -16.6327
  50   2.0000      -0.600272       -16.3342
  51   2.0000      -0.584727       -15.9112
  52   2.0000      -0.574822       -15.6417
  53   2.0000      -0.571504       -15.5514
  54   2.0000      -0.559465       -15.2238
  55   2.0000      -0.555177       -15.1071
  56   2.0000      -0.547790       -14.9061
  57   2.0000      -0.541194       -14.7266
  58   2.0000      -0.537660       -14.6305
  59   2.0000      -0.522381       -14.2147
  60   2.0000      -0.515850       -14.0370
  61   2.0000      -0.507782       -13.8175
  62   2.0000      -0.501047       -13.6342
  63   2.0000      -0.497187       -13.5292
  64   2.0000      -0.494989       -13.4693
  65   2.0000      -0.491620       -13.3777
  66   2.0000      -0.484434       -13.1821
  67   2.0000      -0.473442       -12.8830
  68   2.0000      -0.456757       -12.4290
  69   2.0000      -0.441097       -12.0028
  70   2.0000      -0.429062       -11.6754
  71   2.0000      -0.424549       -11.5526
  72   2.0000      -0.393294       -10.7021
  73   2.0000      -0.367717       -10.0061
  74   2.0000      -0.365905        -9.9568
  75   2.0000      -0.360465        -9.8087
  76   2.0000      -0.347190        -9.4475
  77   2.0000      -0.326220        -8.8769
  78   2.0000      -0.271876        -7.3981
  79   0.0000      -0.072922        -1.9843
  80   0.0000       0.023394         0.6366
  81   0.0000       0.048651         1.3239
  82   0.0000       0.065746         1.7891
  83   0.0000       0.078811         2.1446

MULLIKEN ATOMIC CHARGES
-----------------------
   0 C :   -0.063098
   1 C :    0.214613
   2 C :    0.035431
   3 C :    0.271185
   4 C :    0.069120
   5 O :   -0.224511
   6 C :    0.134203
   7 C :   -0.037710
   8 O :   -0.179064
   9 O :   -0.106489
  10 C :   -0.099801
  11 O :   -0.370559
  12 C :    0.252210
  13 C :   -0.005360
  14 C :    0.022392
  15 C :   -0.025524
  16 O :   -0.186716
  17 C :    0.011453
  18 C :   -0.021134
  19 C :   -0.033654
  20 C :    0.020162
  21 C :    0.019253
  22 C :   -0.000736
  23 H :    0.023904
  24 H :    0.200248
  25 H :    0.030830
  26 H :    0.022859
  27 H :    0.022507
  28 H :    0.005539
  29 H :    0.006628
  30 H :   -0.002455
  31 H :   -0.001661
  32 H :   -0.004064
Sum of atomic charges:   -0.0000000

LOEWDIN ATOMIC CHARGES
----------------------
   0 C :   -0.133470
   1 C :    0.071075
   2 C :   -0.041591
   3 C :    0.008707
   4 C :   -0.132522
   5 O :    0.138029
   6 C :   -0.029378
   7 C :   -0.006218
   8 O :    0.188854
   9 O :    0.173758
  10 C :   -0.135552
  11 O :   -0.095730
  12 C :   -0.096123
  13 C :   -0.032992
  14 C :   -0.022973
  15 C :   -0.037002
  16 O :    0.003694
  17 C :   -0.013653
  18 C :   -0.017816
  19 C :   -0.020539
  20 C :   -0.035971
  21 C :   -0.035413
  22 C :   -0.033998
  23 H :    0.042912
  24 H :    0.020096
  25 H :    0.045898
  26 H :    0.040948
  27 H :    0.041000
  28 H :    0.027785
  29 H :    0.027852
  30 H :    0.030757
  31 H :    0.031097
  32 H :    0.028479

  Mayer bond orders larger than 0.100000
B(  0-C ,  1-C ) :   1.3121 B(  0-C ,  2-C ) :   1.1133 B(  0-C ,  3-C ) :   1.1790
B(  1-C ,  4-C ) :   0.9574 B(  1-C ,  5-O ) :   1.2095 B(  2-C ,  6-C ) :   1.3040
B(  2-C ,  7-C ) :   1.4390 B(  3-C ,  8-O ) :   1.2875 B(  3-C ,  9-O ) :   1.5458
B(  4-C , 10-C ) :   1.3235 B(  4-C , 11-O ) :   1.7186 B(  5-O , 12-C ) :   0.9436
B(  6-C ,  8-O ) :   0.9860 B(  6-C , 13-C ) :   1.4674 B(  7-C , 14-C ) :   1.4625
B(  7-C , 23-H ) :   0.9392 B(  9-O , 24-H ) :   0.8205 B( 10-C , 11-O ) :   0.1012
B( 10-C , 12-C ) :   1.0902 B( 10-C , 15-C ) :   1.0908 B( 11-O , 24-H ) :   0.2479
B( 12-C , 16-O ) :   2.1903 B( 13-C , 17-C ) :   1.4551 B( 13-C , 25-H ) :   0.9334
B( 14-C , 17-C ) :   1.4482 B( 14-C , 26-H ) :   0.9502 B( 15-C , 18-C ) :   1.4223
B( 15-C , 19-C ) :   1.4122 B( 17-C , 27-H ) :   0.9532 B( 18-C , 20-C ) :   1.4755
B( 18-C , 28-H ) :   0.9299 B( 19-C , 21-C ) :   1.4799 B( 19-C , 29-H ) :   0.9340
B( 20-C , 22-C ) :   1.4439 B( 20-C , 30-H ) :   0.9488 B( 21-C , 22-C ) :   1.4418
B( 21-C , 31-H ) :   0.9492 B( 22-C , 32-H ) :   0.9548

-----------------------------------------------------------------------------
         ABSORPTION SPECTRUM VIA TRANSITION ELECTRIC DIPOLE MOMENTS
-----------------------------------------------------------------------------
State   Energy    Wavelength  fosc         T2        TX        TY        TZ
        (cm-1)      (nm)                 (au**2)    (au)      (au)      (au)
-----------------------------------------------------------------------------
   1   16316.7    612.9   0.256071591   5.16661  -1.55288   1.65292   0.15167
   2   24993.7    400.1   0.000062095   0.00082  -0.00255   0.00947  -0.02686
   3   32212.0    310.4   0.371722692   3.79906   1.44967  -1.29963  -0.09212
   4   32783.3    305.0   0.101092518   1.01518   0.55067  -0.84176  -0.05817
   5   34101.2    293.2   0.000269851   0.00261   0.00948  -0.01483  -0.04791
   6   36543.0    273.7   0.191404604   1.72434  -1.22212   0.48011   0.01584
   7   37589.2    266.0   0.012078165   0.10578  -0.20346  -0.25324  -0.01597
   8   42503.0    235.3   0.227951885   1.76563  -1.22025   0.52410   0.04410
   9   42971.2    232.7   0.395143366   3.02728  -1.49871   0.88164   0.06199
  10   43591.5    229.4   0.058921267   0.44499  -0.61732   0.25228   0.01583

Dispersion correction           -0.013623633
FINAL SINGLE POINT ENERGY     -1067.765544830692

DIPOLE MOMENT
-------------
                                X             Y             Z
Electronic contribution:      2.83251      -4.82814      -0.77251
Nuclear contribution   :     -3.24273       4.55393       0.77816
                        -----------------------------------------
Total Dipole Moment    :     -0.41022      -0.27420       0.00564
                        -----------------------------------------
Magnitude (a.u.)       :      0.49346
Magnitude (Debye)      :      1.25427

Rotational constants in cm-1:     0.024171     0.004429     0.003744
Rotational constants in MHz :   724.638375   132.770605   112.242700

                             ****ORCA TERMINATED NORMALLY****
TOTAL RUN TIME: 0 days 21 hours 49 minutes 55 seconds 555 msec
