                         Program Version 5.0.3 -  RELEASE  -
|  1> ! wB97x-D3 cc-pvdz opt
|  2>
|  3> %tddft
|  4>  nroots 10
|  5>  tda TRUE
|  6>  IRoot 3
|  7>  followiroot true
|  8> end
|  9>
| 10> *xyz 0 1
| 11>  C    -1.984740     0.794106    -0.021524
| 12>  C    -2.838475     1.841678     0.081520
| 13>  C    -0.527088     0.785060     0.038111
| 14>  C    -2.376788    -0.615742    -0.217535
| 15>  C    -4.313726     1.911387     0.039093
| 16>  O    -2.346433     3.080298     0.258183
| 17>  C    -0.156560    -0.552710    -0.113631
| 18>  C     0.458919     1.755271     0.205109
| 19>  O    -1.258556    -1.379171    -0.266564
| 20>  O    -3.476969    -1.121595    -0.329143
| 21>  C    -4.680109     3.216729     0.197713
| 22>  O    -5.105055     0.872203    -0.123838
| 23>  C    -3.433260     3.985285     0.336892
| 24>  C     1.152398    -0.987497    -0.108542
| 25>  C     1.792094     1.341694     0.214865
| 26>  C    -6.026900     3.809775     0.234947
| 27>  O    -3.199090     5.144664     0.492355
| 28>  C     2.132854    -0.004732     0.060791
| 29>  C    -7.169665     2.991350     0.246262
| 30>  C    -6.197791     5.203853     0.258613
| 31>  C    -8.441108     3.555088     0.279446
| 32>  C    -7.473361     5.758156     0.290102
| 33>  C    -8.600541     4.939199     0.300428
| 34>  H     0.188458     2.803980     0.325503
| 35>  H    -4.572385     0.033002    -0.220746
| 36>  H     1.397008    -2.042320    -0.230438
| 37>  H     2.581365     2.083432     0.347606
| 38>  H     3.183743    -0.299540     0.073185
| 39>  H    -7.060246     1.908289     0.229395
| 40>  H    -5.322888     5.852493     0.257171
| 41>  H    -9.317114     2.903242     0.288820
| 42>  H    -7.584816     6.844257     0.307513
| 43>  H    -9.599945     5.378427     0.325720
| 44> *
| 45>
| 46>                          ****END OF INPUT****
 Total Charge           Charge          ....    0
 Multiplicity           Mult            ....    1
 Number of Electrons    NEL             ....  158
Dispersion correction           -0.013713189
FINAL SINGLE POINT ENERGY     -1067.702499778794
Dispersion correction                    ... done
Dispersion correction           -0.013654649
FINAL SINGLE POINT ENERGY     -1067.670443368672
Dispersion correction                    ... done
Dispersion correction           -0.013627144
FINAL SINGLE POINT ENERGY     -1067.674540565004
Dispersion correction                    ... done
FINAL SINGLE POINT ENERGY     -1067.675531329045
FINAL SINGLE POINT ENERGY     -1067.678501098101
FINAL SINGLE POINT ENERGY     -1067.678745354978
FINAL SINGLE POINT ENERGY     -1067.682555119089
FINAL SINGLE POINT ENERGY     -1067.685593288959
FINAL SINGLE POINT ENERGY     -1067.711042841779
FINAL SINGLE POINT ENERGY     -1067.689094529556
FINAL SINGLE POINT ENERGY     -1067.729176805912
FINAL SINGLE POINT ENERGY     -1067.731116595352
FINAL SINGLE POINT ENERGY     -1067.732226414437
FINAL SINGLE POINT ENERGY     -1067.733146814783
FINAL SINGLE POINT ENERGY     -1067.733622574371
FINAL SINGLE POINT ENERGY     -1067.733774419547
FINAL SINGLE POINT ENERGY     -1067.733816600323
Dispersion correction                    ... done
Dispersion correction           -0.013705057
FINAL SINGLE POINT ENERGY     -1067.733826782234
Dispersion correction                    ... done
Dispersion correction           -0.013704283
FINAL SINGLE POINT ENERGY     -1067.733830497071
Dispersion correction                    ... done
                    ***********************HURRAY********************

CARTESIAN COORDINATES (ANGSTROEM)
---------------------------------
  C     -1.997547    0.752553   -0.043657
  C     -2.868360    1.843261    0.044998
  C     -0.554697    0.769487    0.024148
  C     -2.388715   -0.602636   -0.200611
  C     -4.299046    1.912944    0.016354
  O     -2.371457    3.090373    0.200428
  C     -0.149590   -0.598517   -0.090732
  C      0.416342    1.749823    0.162936
  O     -1.190044   -1.402965   -0.222374
  O     -3.462179   -1.176680   -0.311922
  C     -4.673758    3.252604    0.167671
  O     -5.110580    0.880347   -0.127503
  C     -3.440932    4.016053    0.282085
  C      1.192704   -1.009710   -0.062626
  C      1.757054    1.344624    0.186884
  C     -6.014150    3.823865    0.222860
  O     -3.185331    5.186841    0.422079
  C      2.142583   -0.015752    0.077505
  C     -7.160927    3.001157    0.178787
  C     -6.195233    5.219808    0.328896
  C     -8.431893    3.556143    0.240644
  C     -7.472326    5.762935    0.388410
  C     -8.597282    4.938284    0.346430
  H      0.137568    2.798999    0.249945
  H     -4.586622    0.033352   -0.214092
  H      1.448331   -2.065450   -0.148424
  H      2.535926    2.101715    0.294910
  H      3.201465   -0.275115    0.105028
  H     -7.045642    1.921712    0.097953
  H     -5.317063    5.863908    0.366059
  H     -9.305221    2.901291    0.207486
  H     -7.590650    6.845365    0.469879
  H     -9.599500    5.368993    0.396948

 Multiplicity           Mult            ....    1
 Number of Electrons    NEL             ....  158
 Basis Dimension        Dim             ....  372

ORBITAL ENERGIES
----------------

  NO   OCC          E(Eh)            E(eV)
   0   2.0000     -19.338432      -526.2255
   1   2.0000     -19.328092      -525.9441
   2   2.0000     -19.312002      -525.5063
   3   2.0000     -19.289929      -524.9057
   4   2.0000     -19.272284      -524.4255
   5   2.0000     -10.469776      -284.8971
   6   2.0000     -10.454857      -284.4911
   7   2.0000     -10.430168      -283.8193
   8   2.0000     -10.411585      -283.3136
   9   2.0000     -10.375834      -282.3408
  10   2.0000     -10.355386      -281.7844
  11   2.0000     -10.339081      -281.3407
  12   2.0000     -10.325975      -280.9841
  13   2.0000     -10.321703      -280.8678
  14   2.0000     -10.318700      -280.7861
  15   2.0000     -10.318490      -280.7804
  16   2.0000     -10.315127      -280.6889
  17   2.0000     -10.308886      -280.5191
  18   2.0000     -10.303132      -280.3625
  19   2.0000     -10.301524      -280.3187
  20   2.0000     -10.300589      -280.2933
  21   2.0000     -10.300452      -280.2895
  22   2.0000     -10.299911      -280.2748
  23   2.0000      -1.277941       -34.7745
  24   2.0000      -1.269033       -34.5322
  25   2.0000      -1.224724       -33.3264
  26   2.0000      -1.194044       -32.4916
  27   2.0000      -1.183744       -32.2113
  28   2.0000      -1.002448       -27.2780
  29   2.0000      -0.994544       -27.0629
  30   2.0000      -0.971778       -26.4434
  31   2.0000      -0.956766       -26.0349
  32   2.0000      -0.896207       -24.3870
  33   2.0000      -0.877446       -23.8765
  34   2.0000      -0.870030       -23.6747
  35   2.0000      -0.866528       -23.5794
  36   2.0000      -0.848022       -23.0759
  37   2.0000      -0.774842       -21.0845
  38   2.0000      -0.765604       -20.8331
  39   2.0000      -0.745850       -20.2956
  40   2.0000      -0.739070       -20.1111
  41   2.0000      -0.716973       -19.5098
  42   2.0000      -0.709779       -19.3141
  43   2.0000      -0.699225       -19.0269
  44   2.0000      -0.667915       -18.1749
  45   2.0000      -0.639555       -17.4032
  46   2.0000      -0.629585       -17.1319
  47   2.0000      -0.626479       -17.0474
  48   2.0000      -0.621358       -16.9080
  49   2.0000      -0.604464       -16.4483
  50   2.0000      -0.603303       -16.4167
  51   2.0000      -0.592985       -16.1359
  52   2.0000      -0.577687       -15.7197
  53   2.0000      -0.567048       -15.4302
  54   2.0000      -0.561597       -15.2818
  55   2.0000      -0.549548       -14.9540
  56   2.0000      -0.546467       -14.8701
  57   2.0000      -0.544118       -14.8062
  58   2.0000      -0.537704       -14.6317
  59   2.0000      -0.523188       -14.2367
  60   2.0000      -0.517333       -14.0773
  61   2.0000      -0.516639       -14.0585
  62   2.0000      -0.511454       -13.9174
  63   2.0000      -0.503183       -13.6923
  64   2.0000      -0.493971       -13.4416
  65   2.0000      -0.484322       -13.1791
  66   2.0000      -0.479277       -13.0418
  67   2.0000      -0.461305       -12.5528
  68   2.0000      -0.454518       -12.3681
  69   2.0000      -0.452644       -12.3171
  70   2.0000      -0.440372       -11.9831
  71   2.0000      -0.415956       -11.3187
  72   2.0000      -0.414617       -11.2823
  73   2.0000      -0.398306       -10.8385
  74   2.0000      -0.396467       -10.7884
  75   2.0000      -0.349410        -9.5079
  76   2.0000      -0.345346        -9.3973
  77   2.0000      -0.325928        -8.8690
  78   2.0000      -0.298830        -8.1316
  79   0.0000      -0.073331        -1.9954
  80   0.0000       0.048179         1.3110
  81   0.0000       0.051768         1.4087
  82   0.0000       0.063351         1.7239
  83   0.0000       0.068340         1.8596

MULLIKEN ATOMIC CHARGES
-----------------------
   0 C :   -0.080482
   1 C :    0.244882
   2 C :   -0.013144
   3 C :    0.261677
   4 C :    0.017766
   5 O :   -0.242146
   6 C :    0.156700
   7 C :   -0.031741
   8 O :   -0.228718
   9 O :   -0.252320
  10 C :   -0.028253
  11 O :   -0.167836
  12 C :    0.260057
  13 C :   -0.010552
  14 C :    0.000798
  15 C :   -0.020288
  16 O :   -0.179796
  17 C :    0.021076
  18 C :   -0.024495
  19 C :   -0.025979
  20 C :    0.019586
  21 C :    0.019750
  22 C :    0.009427
  23 H :    0.015405
  24 H :    0.181544
  25 H :    0.020995
  26 H :    0.012644
  27 H :    0.016094
  28 H :    0.011171
  29 H :    0.015329
  30 H :    0.006609
  31 H :    0.007766
  32 H :    0.006476
Sum of atomic charges:   -0.0000000

LOEWDIN ATOMIC CHARGES
----------------------
   0 C :   -0.108982
   1 C :    0.014175
   2 C :   -0.064671
   3 C :   -0.048095
   4 C :   -0.049639
   5 O :    0.124541
   6 C :   -0.044549
   7 C :   -0.008989
   8 O :    0.129653
   9 O :   -0.006665
  10 C :   -0.086116
  11 O :    0.119342
  12 C :   -0.078912
  13 C :   -0.050923
  14 C :   -0.040523
  15 C :   -0.041774
  16 O :    0.010929
  17 C :   -0.010869
  18 C :   -0.012708
  19 C :   -0.010449
  20 C :   -0.030157
  21 C :   -0.029489
  22 C :   -0.020449
  23 H :    0.038125
  24 H :    0.028935
  25 H :    0.040330
  26 H :    0.034271
  27 H :    0.038307
  28 H :    0.029906
  29 H :    0.031898
  30 H :    0.034732
  31 H :    0.035147
  32 H :    0.033670

  Mayer bond orders larger than 0.100000
B(  0-C ,  1-C ) :   1.4313 B(  0-C ,  2-C ) :   1.1140 B(  0-C ,  3-C ) :   1.0628
B(  1-C ,  4-C ) :   1.0104 B(  1-C ,  5-O ) :   1.1466 B(  2-C ,  6-C ) :   1.2730
B(  2-C ,  7-C ) :   1.4383 B(  3-C ,  8-O ) :   1.0892 B(  3-C ,  9-O ) :   2.0073
B(  4-C , 10-C ) :   1.4801 B(  4-C , 11-O ) :   1.3627 B(  5-O , 12-C ) :   0.9867
B(  6-C ,  8-O ) :   1.0969 B(  6-C , 13-C ) :   1.4506 B(  7-C , 14-C ) :   1.4629
B(  7-C , 23-H ) :   0.9366 B(  9-O , 24-H ) :   0.1751 B( 10-C , 12-C ) :   1.0533
B( 10-C , 15-C ) :   1.0632 B( 11-O , 24-H ) :   0.8840 B( 12-C , 16-O ) :   2.2016
B( 13-C , 17-C ) :   1.4612 B( 13-C , 25-H ) :   0.9346 B( 14-C , 17-C ) :   1.4380
B( 14-C , 26-H ) :   0.9496 B( 15-C , 18-C ) :   1.4196 B( 15-C , 19-C ) :   1.4160
B( 17-C , 27-H ) :   0.9535 B( 18-C , 20-C ) :   1.4809 B( 18-C , 28-H ) :   0.9339
B( 19-C , 21-C ) :   1.4765 B( 19-C , 29-H ) :   0.9336 B( 20-C , 22-C ) :   1.4441
B( 20-C , 30-H ) :   0.9484 B( 21-C , 22-C ) :   1.4439 B( 21-C , 31-H ) :   0.9494
B( 22-C , 32-H ) :   0.9556

-----------------------------------------------------------------------------
         ABSORPTION SPECTRUM VIA TRANSITION ELECTRIC DIPOLE MOMENTS
-----------------------------------------------------------------------------
State   Energy    Wavelength  fosc         T2        TX        TY        TZ
        (cm-1)      (nm)                 (au**2)    (au)      (au)      (au)
-----------------------------------------------------------------------------
   1   24327.6    411.1   0.857961967  11.61032   2.46868  -2.33956  -0.20594
   2   27446.4    364.3   0.002824768   0.03388   0.05186   0.17661   0.00123
   3   33625.8    297.4   0.321876800   3.15132   1.53140  -0.89661  -0.04724
   4   34358.7    291.0   0.000224588   0.00215   0.01497   0.03043  -0.03165
   5   35205.3    284.0   0.010953290   0.10243  -0.03220   0.31776   0.02041
   6   37703.4    265.2   0.000110680   0.00097   0.00685  -0.00201   0.03026
   7   42291.3    236.5   0.338906039   2.63818   1.42420  -0.77932  -0.05004
   8   43242.6    231.3   0.051874812   0.39493   0.24754  -0.57605  -0.04272
   9   45332.6    220.6   0.005449424   0.03957  -0.07820  -0.18275  -0.00778
  10   46250.3    216.2   0.120134628   0.85512  -0.22957  -0.88694  -0.12554

Dispersion correction           -0.013704368
FINAL SINGLE POINT ENERGY     -1067.733830487289

DIPOLE MOMENT
-------------
                                X             Y             Z
Electronic contribution:      5.72172      -6.24785      -0.83313
Nuclear contribution   :     -3.64320       5.24546       0.83270
                        -----------------------------------------
Total Dipole Moment    :      2.07852      -1.00239      -0.00043
                        -----------------------------------------
Magnitude (a.u.)       :      2.30760
Magnitude (Debye)      :      5.86546

Rotational constants in cm-1:     0.024158     0.004443     0.003754
Rotational constants in MHz :   724.230687   133.210369   112.549025

                             ****ORCA TERMINATED NORMALLY****
TOTAL RUN TIME: 1 days 2 hours 1 minutes 23 seconds 974 msec
