                         Program Version 5.0.3 -  RELEASE  -
|  1>
|  2> ! cam-b3lyp cc-pvdz opt
|  3>
|  4> %tddft
|  5>  nroots 10
|  6>  tda TRUE
|  7>  IRoot 1
|  8> end
|  9>
| 10> *xyz 0 1
| 11>   C   -0.30983386222708      3.31172673617910     -0.18957626932439
| 12>   C   -0.72083732346930      1.97089465357528     -0.10867033133745
| 13>   C   0.19780452341277      0.93374563117068     -0.03998559515258
| 14>   C   1.55386157227823      1.26766911593450     -0.05423550685910
| 15>   C   1.98491234227371      2.61209658765160     -0.13503499724067
| 16>   C   1.03787090858897      3.63788347803435     -0.20288324382600
| 17>   C   3.43466444944196      2.57860445516610     -0.12665189963869
| 18>   C   3.80554092044644      1.22070325432463     -0.04150079352485
| 19>   C   5.15371605163716      0.86302949688622     -0.01377702391360
| 20>   C   4.45384855886284      3.53020373553760     -0.18113623982349
| 21>   C   5.76397039399165      3.07271975964906     -0.14749626219756
| 22>   N   6.11373822651619      1.77785700150158     -0.06617223180251
| 23>   N   2.66253240927270      0.44497600352554      0.00168383041358
| 24>   H   1.35591045827433      4.68015430885603     -0.26546801639392
| 25>   H   -1.06072263528408      4.10106100762381     -0.24280248667886
| 26>   H   -1.78716748533082      1.73825198156446     -0.09987446948283
| 27>   H   -0.12972326427160     -0.10533013374620      0.02260541593547
| 28>   H   5.46504502804566     -0.18487858302127      0.05213484207598
| 29>   H   4.23887733232657      4.59765426056001     -0.24770430981127
| 30>   H   6.59300591053844      3.78433726939484     -0.18823791448510
| 31>   H   2.63980438287523     -0.56163517506794      0.06418374656784
| 32> *
| 33> %pal
| 34>   nprocs 16
| 35>   end
| 36>
| 37>                          ****END OF INPUT****
 Total Charge           Charge          ....    0
 Multiplicity           Mult            ....    1
 Number of Electrons    NEL             ....   88
FINAL SINGLE POINT ENERGY      -533.081304090392
FINAL SINGLE POINT ENERGY      -533.084934249496
FINAL SINGLE POINT ENERGY      -533.085988184308
FINAL SINGLE POINT ENERGY      -533.086056992214
FINAL SINGLE POINT ENERGY      -533.086074083952
FINAL SINGLE POINT ENERGY      -533.086077461888
                    ***********************HURRAY********************

CARTESIAN COORDINATES (ANGSTROEM)
---------------------------------
  C     -0.334896    3.286140   -0.188139
  C     -0.754731    1.953908   -0.109227
  C      0.202190    0.915196   -0.039378
  C      1.540989    1.282620   -0.053229
  C      1.997008    2.647188   -0.135090
  C      1.028412    3.656096   -0.202760
  C      3.428261    2.610989   -0.126792
  C      3.822524    1.240195   -0.040791
  C      5.144014    0.845274   -0.012906
  C      4.473587    3.542832   -0.181471
  C      5.793338    3.041675   -0.146705
  N      6.153211    1.758756   -0.066424
  N      2.659414    0.487075    0.001152
  H      1.313011    4.706191   -0.265992
  H     -1.089044    4.073731   -0.241571
  H     -1.817444    1.715442   -0.101604
  H     -0.098702   -0.131590    0.022739
  H      5.431673   -0.207901    0.052552
  H      4.296350    4.615996   -0.248869
  H      6.621996    3.756379   -0.188825
  H      2.635657   -0.524470    0.062729

 Multiplicity           Mult            ....    1
 Number of Electrons    NEL             ....   88
 Basis Dimension        Dim             ....  222

ORBITAL ENERGIES
----------------

  NO   OCC          E(Eh)            E(eV)
   0   2.0000     -14.451233      -393.2380
   1   2.0000     -14.397792      -391.7838
   2   2.0000     -10.311687      -280.5953
   3   2.0000     -10.306741      -280.4607
   4   2.0000     -10.295057      -280.1427
   5   2.0000     -10.285670      -279.8873
   6   2.0000     -10.279673      -279.7241
   7   2.0000     -10.276471      -279.6370
   8   2.0000     -10.275803      -279.6188
   9   2.0000     -10.273378      -279.5528
  10   2.0000     -10.272834      -279.5380
  11   2.0000     -10.272228      -279.5215
  12   2.0000     -10.264686      -279.3163
  13   2.0000      -1.077187       -29.3117
  14   2.0000      -1.010683       -27.5021
  15   2.0000      -0.933879       -25.4121
  16   2.0000      -0.894246       -24.3337
  17   2.0000      -0.842877       -22.9358
  18   2.0000      -0.828274       -22.5385
  19   2.0000      -0.813351       -22.1324
  20   2.0000      -0.743754       -20.2386
  21   2.0000      -0.696255       -18.9460
  22   2.0000      -0.687189       -18.6994
  23   2.0000      -0.662968       -18.0403
  24   2.0000      -0.616310       -16.7707
  25   2.0000      -0.590562       -16.0700
  26   2.0000      -0.586113       -15.9489
  27   2.0000      -0.543063       -14.7775
  28   2.0000      -0.529012       -14.3952
  29   2.0000      -0.516616       -14.0578
  30   2.0000      -0.510482       -13.8909
  31   2.0000      -0.505203       -13.7473
  32   2.0000      -0.502188       -13.6652
  33   2.0000      -0.475010       -12.9257
  34   2.0000      -0.446874       -12.1601
  35   2.0000      -0.437160       -11.8957
  36   2.0000      -0.420102       -11.4315
  37   2.0000      -0.410526       -11.1710
  38   2.0000      -0.408624       -11.1192
  39   2.0000      -0.363366        -9.8877
  40   2.0000      -0.320063        -8.7094
  41   2.0000      -0.318843        -8.6762
  42   2.0000      -0.284344        -7.7374
  43   2.0000      -0.261272        -7.1096
  44   0.0000      -0.010575        -0.2878
  45   0.0000       0.039549         1.0762
  46   0.0000       0.067318         1.8318
  47   0.0000       0.077045         2.0965
  48   0.0000       0.094010         2.5581

MULLIKEN ATOMIC CHARGES
-----------------------
   0 C :    0.028727
   1 C :    0.042662
   2 C :   -0.001663
   3 C :    0.089500
   4 C :    0.045270
   5 C :   -0.040902
   6 C :    0.118508
   7 C :    0.031629
   8 C :    0.081775
   9 C :   -0.099214
  10 C :    0.088875
  11 N :   -0.161244
  12 N :   -0.155399
  13 H :   -0.033830
  14 H :   -0.024149
  15 H :   -0.019571
  16 H :   -0.030031
  17 H :   -0.011464
  18 H :   -0.028717
  19 H :   -0.005880
  20 H :    0.085118
Sum of atomic charges:   -0.0000000

LOEWDIN ATOMIC CHARGES
----------------------
   0 C :   -0.049592
   1 C :   -0.015594
   2 C :   -0.060838
   3 C :   -0.019492
   4 C :   -0.050809
   5 C :   -0.008576
   6 C :   -0.027241
   7 C :   -0.045803
   8 C :   -0.070410
   9 C :   -0.039318
  10 C :   -0.067367
  11 N :    0.031613
  12 N :    0.168504
  13 H :    0.029772
  14 H :    0.027559
  15 H :    0.031008
  16 H :    0.026726
  17 H :    0.021563
  18 H :    0.029806
  19 H :    0.021415
  20 H :    0.067075

  Mayer bond orders larger than 0.100000
B(  0-C ,  1-C ) :   1.4422 B(  0-C ,  5-C ) :   1.4576 B(  0-C , 14-H ) :   0.9393
B(  1-C ,  2-C ) :   1.4584 B(  1-C , 15-H ) :   0.9430 B(  2-C ,  3-C ) :   1.4132
B(  2-C , 16-H ) :   0.9218 B(  3-C ,  4-C ) :   1.2323 B(  3-C , 12-N ) :   1.1795
B(  4-C ,  5-C ) :   1.4364 B(  4-C ,  6-C ) :   1.1542 B(  5-C , 13-H ) :   0.9428
B(  6-C ,  7-C ) :   1.2248 B(  6-C ,  9-C ) :   1.4360 B(  7-C ,  8-C ) :   1.4039
B(  7-C , 12-N ) :   1.1460 B(  8-C , 11-N ) :   1.5317 B(  8-C , 17-H ) :   0.9379
B(  9-C , 10-C ) :   1.4315 B(  9-C , 18-H ) :   0.9382 B( 10-C , 11-N ) :   1.5549
B( 10-C , 19-H ) :   0.9524 B( 12-N , 20-H ) :   0.9477

-----------------------------------------------------------------------------
         ABSORPTION SPECTRUM VIA TRANSITION ELECTRIC DIPOLE MOMENTS
-----------------------------------------------------------------------------
State   Energy    Wavelength  fosc         T2        TX        TY        TZ
        (cm-1)      (nm)                 (au**2)    (au)      (au)      (au)
-----------------------------------------------------------------------------
   1   34193.4    292.5   0.080707410   0.77705  -0.25531  -0.84221   0.05042
   2   39747.0    251.6   0.133612434   1.10667   1.04156  -0.14709   0.01351
   3   40505.5    246.9   0.003883269   0.03156  -0.00098  -0.01084  -0.17732
   4   45025.6    222.1   0.070196154   0.51325   0.67925  -0.22709   0.01720
   5   48959.5    204.3   1.062699528   7.14577  -2.65766   0.28600  -0.02865
   6   49269.4    203.0   0.000929231   0.00621   0.02532   0.00276   0.07457
   7   49846.5    200.6   0.205928337   1.36006  -1.01154  -0.57957   0.03066
   8   53470.0    187.0   0.421700259   2.59638   1.58969   0.26304  -0.00969
   9   53730.4    186.1   0.000098162   0.00060  -0.02340   0.00115   0.00726
  10   54794.4    182.5   0.325074791   1.95309  -1.29637   0.52064  -0.03828

FINAL SINGLE POINT ENERGY      -533.086077559280

DIPOLE MOMENT
-------------
                                X             Y             Z
Electronic contribution:      2.97357      -1.91239       0.14245
Nuclear contribution   :     -4.16049       1.25588      -0.10754
                        -----------------------------------------
Total Dipole Moment    :     -1.18692      -0.65651       0.03491
                        -----------------------------------------
Magnitude (a.u.)       :      1.35684
Magnitude (Debye)      :      3.44881

Rotational constants in cm-1:     0.077682     0.019409     0.015529
Rotational constants in MHz :  2328.847981   581.867952   465.549842

                             ****ORCA TERMINATED NORMALLY****
TOTAL RUN TIME: 0 days 0 hours 5 minutes 49 seconds 962 msec
