                         Program Version 5.0.3 -  RELEASE  -
|  1> ! wB97x-D3 cc-pvdz opt
|  2>
|  3> %tddft
|  4>  nroots 10
|  5>  tda TRUE
|  6>  IRoot 7
|  7>  followiroot true
|  8> end
|  9>
| 10> *xyz 0 1
| 11>  C    -1.984740     0.794106    -0.021524
| 12>  C    -2.838475     1.841678     0.081520
| 13>  C    -0.527088     0.785060     0.038111
| 14>  C    -2.376788    -0.615742    -0.217535
| 15>  C    -4.313726     1.911387     0.039093
| 16>  O    -2.346433     3.080298     0.258183
| 17>  C    -0.156560    -0.552710    -0.113631
| 18>  C     0.458919     1.755271     0.205109
| 19>  O    -1.258556    -1.379171    -0.266564
| 20>  O    -3.476969    -1.121595    -0.329143
| 21>  C    -4.680109     3.216729     0.197713
| 22>  O    -5.105055     0.872203    -0.123838
| 23>  C    -3.433260     3.985285     0.336892
| 24>  C     1.152398    -0.987497    -0.108542
| 25>  C     1.792094     1.341694     0.214865
| 26>  C    -6.026900     3.809775     0.234947
| 27>  O    -3.199090     5.144664     0.492355
| 28>  C     2.132854    -0.004732     0.060791
| 29>  C    -7.169665     2.991350     0.246262
| 30>  C    -6.197791     5.203853     0.258613
| 31>  C    -8.441108     3.555088     0.279446
| 32>  C    -7.473361     5.758156     0.290102
| 33>  C    -8.600541     4.939199     0.300428
| 34>  H     0.188458     2.803980     0.325503
| 35>  H    -4.572385     0.033002    -0.220746
| 36>  H     1.397008    -2.042320    -0.230438
| 37>  H     2.581365     2.083432     0.347606
| 38>  H     3.183743    -0.299540     0.073185
| 39>  H    -7.060246     1.908289     0.229395
| 40>  H    -5.322888     5.852493     0.257171
| 41>  H    -9.317114     2.903242     0.288820
| 42>  H    -7.584816     6.844257     0.307513
| 43>  H    -9.599945     5.378427     0.325720
| 44> *
| 45>
| 46>                          ****END OF INPUT****
 Total Charge           Charge          ....    0
 Multiplicity           Mult            ....    1
 Number of Electrons    NEL             ....  158
Dispersion correction           -0.013713189
FINAL SINGLE POINT ENERGY     -1067.667062153854
Dispersion correction                    ... done
Dispersion correction           -0.013705314
FINAL SINGLE POINT ENERGY     -1067.653395720746
Dispersion correction                    ... done
Dispersion correction           -0.013701767
FINAL SINGLE POINT ENERGY     -1067.654938124175
Dispersion correction                    ... done
FINAL SINGLE POINT ENERGY     -1067.656716583162
FINAL SINGLE POINT ENERGY     -1067.652212664443
FINAL SINGLE POINT ENERGY     -1067.656919229731
FINAL SINGLE POINT ENERGY     -1067.656874199243
FINAL SINGLE POINT ENERGY     -1067.657341137756
FINAL SINGLE POINT ENERGY     -1067.657353565758
FINAL SINGLE POINT ENERGY     -1067.657377940005
FINAL SINGLE POINT ENERGY     -1067.659895590613
FINAL SINGLE POINT ENERGY     -1067.659979233846
FINAL SINGLE POINT ENERGY     -1067.660081656789
FINAL SINGLE POINT ENERGY     -1067.660088803475
FINAL SINGLE POINT ENERGY     -1067.660129926485
FINAL SINGLE POINT ENERGY     -1067.660136177681
FINAL SINGLE POINT ENERGY     -1067.660142101911
Dispersion correction                    ... done
Dispersion correction           -0.013730368
FINAL SINGLE POINT ENERGY     -1067.660147357983
Dispersion correction                    ... done
Dispersion correction           -0.013728983
FINAL SINGLE POINT ENERGY     -1067.660152921279
Dispersion correction                    ... done
                    ***********************HURRAY********************

CARTESIAN COORDINATES (ANGSTROEM)
---------------------------------
  C     -1.987118    0.794249    0.016698
  C     -2.832255    1.869748    0.057135
  C     -0.534844    0.780275    0.032953
  C     -2.399509   -0.613891   -0.030954
  C     -4.294666    1.928323    0.050566
  O     -2.332469    3.109212    0.123602
  C     -0.175772   -0.574315    0.000137
  C      0.453145    1.771331    0.070152
  O     -1.285093   -1.397720   -0.039092
  O     -3.511528   -1.117036   -0.058780
  C     -4.681300    3.264045    0.115961
  O     -5.090978    0.890246    0.007376
  C     -3.417742    4.045208    0.145833
  C      1.140042   -1.019180    0.007009
  C      1.788272    1.345596    0.076035
  C     -5.997979    3.813846    0.171909
  O     -3.168495    5.217788    0.193440
  C      2.120688   -0.017338    0.045923
  C     -7.158853    3.002253   -0.079599
  C     -6.195805    5.208763    0.502095
  C     -8.426064    3.537493    0.015952
  C     -7.476775    5.712987    0.599931
  C     -8.602730    4.898009    0.367820
  H      0.183702    2.826152    0.093148
  H     -4.561097    0.030569   -0.024574
  H      1.385338   -2.079688   -0.016426
  H      2.587837    2.087561    0.104976
  H      3.173065   -0.307759    0.052543
  H     -7.028665    1.957417   -0.357886
  H     -5.326044    5.840136    0.679194
  H     -9.294937    2.908337   -0.185041
  H     -7.620147    6.762633    0.865261
  H     -9.607991    5.314360    0.454086

 Multiplicity           Mult            ....    1
 Number of Electrons    NEL             ....  158
 Basis Dimension        Dim             ....  372

ORBITAL ENERGIES
----------------

  NO   OCC          E(Eh)            E(eV)
   0   2.0000     -19.339181      -526.2459
   1   2.0000     -19.334181      -526.1098
   2   2.0000     -19.301370      -525.2170
   3   2.0000     -19.282366      -524.6999
   4   2.0000     -19.269503      -524.3498
   5   2.0000     -10.468219      -284.8547
   6   2.0000     -10.452808      -284.4354
   7   2.0000     -10.420757      -283.5632
   8   2.0000     -10.405444      -283.1465
   9   2.0000     -10.380122      -282.4575
  10   2.0000     -10.348572      -281.5989
  11   2.0000     -10.332050      -281.1494
  12   2.0000     -10.330945      -281.1193
  13   2.0000     -10.324377      -280.9406
  14   2.0000     -10.324349      -280.9398
  15   2.0000     -10.323460      -280.9156
  16   2.0000     -10.321095      -280.8513
  17   2.0000     -10.316227      -280.7188
  18   2.0000     -10.302711      -280.3510
  19   2.0000     -10.300346      -280.2867
  20   2.0000     -10.300193      -280.2825
  21   2.0000     -10.299129      -280.2535
  22   2.0000     -10.298177      -280.2276
  23   2.0000      -1.280090       -34.8330
  24   2.0000      -1.271488       -34.5989
  25   2.0000      -1.219959       -33.1968
  26   2.0000      -1.189664       -32.3724
  27   2.0000      -1.184106       -32.2212
  28   2.0000      -1.008897       -27.4535
  29   2.0000      -0.986045       -26.8316
  30   2.0000      -0.967901       -26.3379
  31   2.0000      -0.948183       -25.8014
  32   2.0000      -0.894131       -24.3306
  33   2.0000      -0.887662       -24.1545
  34   2.0000      -0.868266       -23.6267
  35   2.0000      -0.862354       -23.4659
  36   2.0000      -0.836688       -22.7674
  37   2.0000      -0.774217       -21.0675
  38   2.0000      -0.763322       -20.7710
  39   2.0000      -0.750491       -20.4219
  40   2.0000      -0.737092       -20.0573
  41   2.0000      -0.711946       -19.3730
  42   2.0000      -0.706173       -19.2159
  43   2.0000      -0.694086       -18.8870
  44   2.0000      -0.671247       -18.2655
  45   2.0000      -0.637569       -17.3491
  46   2.0000      -0.628577       -17.1044
  47   2.0000      -0.625005       -17.0073
  48   2.0000      -0.617339       -16.7987
  49   2.0000      -0.604845       -16.4587
  50   2.0000      -0.604306       -16.4440
  51   2.0000      -0.591228       -16.0881
  52   2.0000      -0.575967       -15.6729
  53   2.0000      -0.566830       -15.4242
  54   2.0000      -0.565021       -15.3750
  55   2.0000      -0.550425       -14.9778
  56   2.0000      -0.546266       -14.8647
  57   2.0000      -0.537262       -14.6196
  58   2.0000      -0.532840       -14.4993
  59   2.0000      -0.523453       -14.2439
  60   2.0000      -0.518359       -14.1053
  61   2.0000      -0.515170       -14.0185
  62   2.0000      -0.510731       -13.8977
  63   2.0000      -0.500857       -13.6290
  64   2.0000      -0.490190       -13.3388
  65   2.0000      -0.485827       -13.2200
  66   2.0000      -0.472924       -12.8689
  67   2.0000      -0.463493       -12.6123
  68   2.0000      -0.461598       -12.5607
  69   2.0000      -0.453528       -12.3411
  70   2.0000      -0.435905       -11.8616
  71   2.0000      -0.413158       -11.2426
  72   2.0000      -0.411028       -11.1846
  73   2.0000      -0.395702       -10.7676
  74   2.0000      -0.389716       -10.6047
  75   2.0000      -0.353204        -9.6112
  76   2.0000      -0.344607        -9.3772
  77   2.0000      -0.332163        -9.0386
  78   2.0000      -0.293486        -7.9862
  79   0.0000      -0.057996        -1.5781
  80   0.0000       0.044021         1.1979
  81   0.0000       0.047204         1.2845
  82   0.0000       0.063515         1.7283
  83   0.0000       0.070194         1.9101

MULLIKEN ATOMIC CHARGES
-----------------------
   0 C :   -0.147804
   1 C :    0.236392
   2 C :    0.035548
   3 C :    0.294047
   4 C :    0.022277
   5 O :   -0.245253
   6 C :    0.141680
   7 C :   -0.033375
   8 O :   -0.213461
   9 O :   -0.266306
  10 C :   -0.021894
  11 O :   -0.173909
  12 C :    0.254715
  13 C :   -0.009313
  14 C :    0.015603
  15 C :   -0.046487
  16 O :   -0.174453
  17 C :    0.012834
  18 C :   -0.015039
  19 C :   -0.019593
  20 C :    0.017957
  21 C :    0.019213
  22 C :   -0.001173
  23 H :    0.019809
  24 H :    0.189994
  25 H :    0.026060
  26 H :    0.016890
  27 H :    0.018326
  28 H :    0.011224
  29 H :    0.014418
  30 H :    0.006797
  31 H :    0.007182
  32 H :    0.007093
Sum of atomic charges:   -0.0000000

LOEWDIN ATOMIC CHARGES
----------------------
   0 C :   -0.113099
   1 C :   -0.005669
   2 C :   -0.052203
   3 C :   -0.081258
   4 C :   -0.052289
   5 O :    0.119936
   6 C :   -0.022532
   7 C :   -0.004439
   8 O :    0.146555
   9 O :   -0.002644
  10 C :   -0.102584
  11 O :    0.121253
  12 C :   -0.068684
  13 C :   -0.038537
  14 C :   -0.032319
  15 C :   -0.036145
  16 O :    0.014028
  17 C :   -0.012537
  18 C :   -0.014191
  19 C :   -0.010685
  20 C :   -0.032189
  21 C :   -0.033709
  22 C :   -0.019441
  23 H :    0.039327
  24 H :    0.014143
  25 H :    0.042823
  26 H :    0.037328
  27 H :    0.038521
  28 H :    0.029787
  29 H :    0.031271
  30 H :    0.034083
  31 H :    0.034454
  32 H :    0.031644

  Mayer bond orders larger than 0.100000
B(  0-C ,  1-C ) :   1.4759 B(  0-C ,  2-C ) :   1.1019 B(  0-C ,  3-C ) :   1.0444
B(  1-C ,  4-C ) :   0.9936 B(  1-C ,  5-O ) :   1.1570 B(  2-C ,  6-C ) :   1.2960
B(  2-C ,  7-C ) :   1.4360 B(  3-C ,  8-O ) :   1.1953 B(  3-C ,  9-O ) :   1.9692
B(  4-C , 10-C ) :   1.4808 B(  4-C , 11-O ) :   1.3850 B(  5-O , 12-C ) :   0.9675
B(  6-C ,  8-O ) :   1.0161 B(  6-C , 13-C ) :   1.4684 B(  7-C , 14-C ) :   1.4512
B(  7-C , 23-H ) :   0.9392 B(  9-O , 24-H ) :   0.2053 B( 10-C , 12-C ) :   1.0415
B( 10-C , 15-C ) :   1.0753 B( 11-O , 24-H ) :   0.8593 B( 12-C , 16-O ) :   2.2239
B( 13-C , 17-C ) :   1.4422 B( 13-C , 25-H ) :   0.9355 B( 14-C , 17-C ) :   1.4578
B( 14-C , 26-H ) :   0.9509 B( 15-C , 18-C ) :   1.4061 B( 15-C , 19-C ) :   1.3945
B( 17-C , 27-H ) :   0.9532 B( 18-C , 20-C ) :   1.4904 B( 18-C , 28-H ) :   0.9385
B( 19-C , 21-C ) :   1.4878 B( 19-C , 29-H ) :   0.9402 B( 20-C , 22-C ) :   1.4336
B( 20-C , 30-H ) :   0.9490 B( 21-C , 22-C ) :   1.4396 B( 21-C , 31-H ) :   0.9495
B( 22-C , 32-H ) :   0.9560

-----------------------------------------------------------------------------
         ABSORPTION SPECTRUM VIA TRANSITION ELECTRIC DIPOLE MOMENTS
-----------------------------------------------------------------------------
State   Energy    Wavelength  fosc         T2        TX        TY        TZ
        (cm-1)      (nm)                 (au**2)    (au)      (au)      (au)
-----------------------------------------------------------------------------
   1   25842.9    387.0   0.795683531  10.13619   2.36639  -2.12721  -0.10668
   2   32313.8    309.5   0.262606346   2.67542   1.19271  -1.11883  -0.03310
   3   36675.7    272.7   0.002257975   0.02027  -0.13483  -0.01834  -0.04187
   4   36792.0    271.8   0.194484544   1.74023  -1.20765   0.53046   0.02071
   5   37578.4    266.1   0.010785065   0.09448  -0.07950   0.29089   0.05957
   6   39659.9    252.1   0.000279732   0.00232  -0.00275  -0.02646   0.04018
   7   43976.4    227.4   0.424419369   3.17725  -1.69500   0.54745   0.06723
   8   44885.8    222.8   0.044075904   0.32327   0.39962  -0.40438   0.00690
   9   45238.7    221.0   0.012460697   0.09068   0.00405  -0.29093  -0.07762
  10   45418.6    220.2   0.034072314   0.24697  -0.35940   0.33262   0.08465

Dispersion correction           -0.013728859
FINAL SINGLE POINT ENERGY     -1067.660152205734

DIPOLE MOMENT
-------------
                                X             Y             Z
Electronic contribution:      4.71553      -5.87068      -0.62637
Nuclear contribution   :     -3.61980       5.03383       0.59892
                        -----------------------------------------
Total Dipole Moment    :      1.09573      -0.83685      -0.02745
                        -----------------------------------------
Magnitude (a.u.)       :      1.37903
Magnitude (Debye)      :      3.50520

Rotational constants in cm-1:     0.023989     0.004475     0.003778
Rotational constants in MHz :   719.185907   134.163968   113.268561

                             ****ORCA TERMINATED NORMALLY****
TOTAL RUN TIME: 1 days 22 hours 49 minutes 36 seconds 533 msec
