                         Program Version 5.0.3 -  RELEASE  -
|  1>
|  2> ! cam-b3lyp cc-pvdz opt
|  3>
|  4> %tddft
|  5>  nroots 10
|  6>  tda TRUE
|  7>  IRoot 3
|  8>  followiroot true
|  9> end
| 10>
| 11> *xyz 0 1
| 12> C     -0.309834    3.311727   -0.189576
| 13> C     -0.720837    1.970895   -0.108670
| 14> C      0.197805    0.933746   -0.039986
| 15> C      1.553862    1.267669   -0.054236
| 16> C      1.984912    2.612097   -0.135035
| 17> C      1.037871    3.637883   -0.202883
| 18> C      3.434664    2.578604   -0.126652
| 19> C      3.805541    1.220703   -0.041501
| 20> C      5.153716    0.863029   -0.013777
| 21> C      4.453849    3.530204   -0.181136
| 22> C      5.763970    3.072720   -0.147496
| 23> N      6.113738    1.777857   -0.066172
| 24> N      2.662532    0.444976    0.001684
| 25> H      1.355910    4.680154   -0.265468
| 26> H     -1.060723    4.101061   -0.242802
| 27> H     -1.787167    1.738252   -0.099874
| 28> H     -0.129723   -0.105330    0.022605
| 29> H      5.465045   -0.184879    0.052135
| 30> H      4.238877    4.597654   -0.247704
| 31> H      6.593006    3.784337   -0.188238
| 32> H      2.639804   -0.561635    0.064184
| 33> *
| 34> %pal nprocs 14 end
| 35>
| 36>                          ****END OF INPUT****
 Total Charge           Charge          ....    0
 Multiplicity           Mult            ....    1
 Number of Electrons    NEL             ....   88
FINAL SINGLE POINT ENERGY      -533.059585875057
FINAL SINGLE POINT ENERGY      -533.063746722992
FINAL SINGLE POINT ENERGY      -533.064550221574
FINAL SINGLE POINT ENERGY      -533.064618847136
FINAL SINGLE POINT ENERGY      -533.064674859993
FINAL SINGLE POINT ENERGY      -533.063364083866
FINAL SINGLE POINT ENERGY      -533.064855444076
FINAL SINGLE POINT ENERGY      -533.065316391922
FINAL SINGLE POINT ENERGY      -533.061979402196
FINAL SINGLE POINT ENERGY      -533.065671447998
FINAL SINGLE POINT ENERGY      -533.081534795624
FINAL SINGLE POINT ENERGY      -533.081567283835
FINAL SINGLE POINT ENERGY      -533.081587943821
FINAL SINGLE POINT ENERGY      -533.081589877009
FINAL SINGLE POINT ENERGY      -533.081629044305
FINAL SINGLE POINT ENERGY      -533.081678546184
FINAL SINGLE POINT ENERGY      -533.081699908376
FINAL SINGLE POINT ENERGY      -533.081706680779
FINAL SINGLE POINT ENERGY      -533.081709473914
                    ***********************HURRAY********************

CARTESIAN COORDINATES (ANGSTROEM)
---------------------------------
  C     -0.298758    3.307886   -0.160996
  C     -0.726232    1.972385   -0.102407
  C      0.195010    0.928301   -0.056424
  C      1.544467    1.257822   -0.077470
  C      2.001612    2.601267   -0.145616
  C      1.050687    3.633301   -0.180487
  C      3.434312    2.560988   -0.143665
  C      3.794471    1.202002   -0.087555
  C      5.145491    0.771367   -0.026220
  C      4.459163    3.572499   -0.136173
  C      5.776353    3.123883   -0.150563
  N      5.987705    1.831305   -0.117910
  N      2.659920    0.432184   -0.038719
  H      1.368173    4.676539   -0.222917
  H     -1.043989    4.104814   -0.191174
  H     -1.793555    1.747193   -0.088557
  H     -0.133455   -0.111450   -0.002707
  H      5.495588   -0.184571    0.355890
  H      4.255983    4.630617   -0.288019
  H      6.633645    3.789539   -0.273710
  H      2.640229   -0.576149   -0.075200

 Multiplicity           Mult            ....    1
 Number of Electrons    NEL             ....   88
 Basis Dimension        Dim             ....  222

ORBITAL ENERGIES
----------------

  NO   OCC          E(Eh)            E(eV)
   0   2.0000     -14.448679      -393.1686
   1   2.0000     -14.382308      -391.3625
   2   2.0000     -10.306201      -280.4460
   3   2.0000     -10.305776      -280.4344
   4   2.0000     -10.302231      -280.3379
   5   2.0000     -10.284653      -279.8596
   6   2.0000     -10.274983      -279.5965
   7   2.0000     -10.271936      -279.5136
   8   2.0000     -10.269853      -279.4569
   9   2.0000     -10.269750      -279.4541
  10   2.0000     -10.269362      -279.4436
  11   2.0000     -10.266913      -279.3769
  12   2.0000     -10.260607      -279.2053
  13   2.0000      -1.076443       -29.2915
  14   2.0000      -1.007585       -27.4178
  15   2.0000      -0.935473       -25.4555
  16   2.0000      -0.885787       -24.1035
  17   2.0000      -0.845656       -23.0115
  18   2.0000      -0.819010       -22.2864
  19   2.0000      -0.818601       -22.2753
  20   2.0000      -0.740620       -20.1533
  21   2.0000      -0.692235       -18.8367
  22   2.0000      -0.683171       -18.5900
  23   2.0000      -0.663700       -18.0602
  24   2.0000      -0.616625       -16.7792
  25   2.0000      -0.589291       -16.0354
  26   2.0000      -0.575973       -15.6730
  27   2.0000      -0.541918       -14.7463
  28   2.0000      -0.536103       -14.5881
  29   2.0000      -0.520927       -14.1752
  30   2.0000      -0.511005       -13.9051
  31   2.0000      -0.504516       -13.7286
  32   2.0000      -0.499955       -13.6045
  33   2.0000      -0.470441       -12.8014
  34   2.0000      -0.452233       -12.3059
  35   2.0000      -0.441401       -12.0111
  36   2.0000      -0.422762       -11.5039
  37   2.0000      -0.409267       -11.1367
  38   2.0000      -0.407847       -11.0981
  39   2.0000      -0.356846        -9.7103
  40   2.0000      -0.319916        -8.7054
  41   2.0000      -0.285930        -7.7805
  42   2.0000      -0.277696        -7.5565
  43   2.0000      -0.261272        -7.1096
  44   0.0000      -0.006389        -0.1738
  45   0.0000       0.039612         1.0779
  46   0.0000       0.068157         1.8546
  47   0.0000       0.080021         2.1775
  48   0.0000       0.095075         2.5871

MULLIKEN ATOMIC CHARGES
-----------------------
   0 C :    0.034423
   1 C :    0.038542
   2 C :    0.004774
   3 C :    0.080081
   4 C :    0.049256
   5 C :   -0.028523
   6 C :    0.087642
   7 C :    0.017522
   8 C :    0.075978
   9 C :   -0.087915
  10 C :    0.096069
  11 N :   -0.167093
  12 N :   -0.150764
  13 H :   -0.036966
  14 H :   -0.026353
  15 H :   -0.023563
  16 H :   -0.032618
  17 H :    0.011992
  18 H :   -0.026439
  19 H :   -0.001768
  20 H :    0.085724
Sum of atomic charges:   -0.0000000

LOEWDIN ATOMIC CHARGES
----------------------
   0 C :   -0.047966
   1 C :   -0.021006
   2 C :   -0.057510
   3 C :   -0.022591
   4 C :   -0.047913
   5 C :   -0.013580
   6 C :   -0.034936
   7 C :   -0.046732
   8 C :   -0.066801
   9 C :   -0.024556
  10 C :   -0.087631
  11 N :    0.045784
  12 N :    0.168966
  13 H :    0.029489
  14 H :    0.028201
  15 H :    0.030244
  16 H :    0.027146
  17 H :    0.024837
  18 H :    0.026459
  19 H :    0.023661
  20 H :    0.066433

  Mayer bond orders larger than 0.100000
B(  0-C ,  1-C ) :   1.4110 B(  0-C ,  5-C ) :   1.4904 B(  0-C , 14-H ) :   0.9385
B(  1-C ,  2-C ) :   1.4950 B(  1-C , 15-H ) :   0.9405 B(  2-C ,  3-C ) :   1.3948
B(  2-C , 16-H ) :   0.9215 B(  3-C ,  4-C ) :   1.2684 B(  3-C , 12-N ) :   1.1557
B(  4-C ,  5-C ) :   1.4145 B(  4-C ,  6-C ) :   1.1826 B(  5-C , 13-H ) :   0.9402
B(  6-C ,  7-C ) :   1.2604 B(  6-C ,  9-C ) :   1.3927 B(  7-C ,  8-C ) :   1.3218
B(  7-C , 12-N ) :   1.1656 B(  8-C ,  9-C ) :   0.1054 B(  8-C , 11-N ) :   1.5453
B(  8-C , 17-H ) :   0.9498 B(  9-C , 10-C ) :   1.4381 B(  9-C , 18-H ) :   0.9386
B( 10-C , 11-N ) :   1.5472 B( 10-C , 19-H ) :   0.9562 B( 12-N , 20-H ) :   0.9503

-----------------------------------------------------------------------------
         ABSORPTION SPECTRUM VIA TRANSITION ELECTRIC DIPOLE MOMENTS
-----------------------------------------------------------------------------
State   Energy    Wavelength  fosc         T2        TX        TY        TZ
        (cm-1)      (nm)                 (au**2)    (au)      (au)      (au)
-----------------------------------------------------------------------------
   1   30605.9    326.7   0.009316612   0.10021   0.04558  -0.28528  -0.12944
   2   35880.0    278.7   0.052921149   0.48557  -0.11525   0.68495  -0.05602
   3   39220.8    255.0   0.146468516   1.22943   1.10742   0.05324  -0.01471
   4   42386.0    235.9   0.121529261   0.94392  -0.96482   0.08654  -0.07445
   5   45097.8    221.7   0.150364481   1.09765   1.02842  -0.20001  -0.00327
   6   48444.9    206.4   0.059314743   0.40308   0.17749  -0.60941   0.01387
   7   49139.4    203.5   0.651023521   4.36156  -2.06443  -0.31542   0.01361
   8   54004.8    185.2   0.101821562   0.62070   0.77662   0.13249  -0.00226
   9   54517.0    183.4   0.268198604   1.61957  -1.26887   0.09767   0.00221
  10   54738.1    182.7   0.285725289   1.71844  -1.26399   0.34073  -0.06835

FINAL SINGLE POINT ENERGY      -533.081707517844

DIPOLE MOMENT
-------------
                                X             Y             Z
Electronic contribution:      4.51774      -1.98644      -0.01318
Nuclear contribution   :     -3.96206       1.35843       0.07519
                        -----------------------------------------
Total Dipole Moment    :      0.55568      -0.62801       0.06201
                        -----------------------------------------
Magnitude (a.u.)       :      0.84085
Magnitude (Debye)      :      2.13726

Rotational constants in cm-1:     0.075287     0.019957     0.015781
Rotational constants in MHz :  2257.046511   598.307964   473.108612

                             ****ORCA TERMINATED NORMALLY****
TOTAL RUN TIME: 0 days 0 hours 53 minutes 41 seconds 116 msec
