                         Program Version 5.0.3 -  RELEASE  -
|  1> ! cam-b3lyp cc-pvdz opt
|  2>
|  3> %tddft
|  4>  nroots 10
|  5>  tda TRUE
|  6>  IRoot 1
|  7> end
|  8>
|  9> *xyz 0 1
| 10> N     -3.496257   -0.543515   -0.115550
| 11> C     -2.279446    0.150725   -0.177131
| 12> C     -1.180304   -0.776847   -0.108955
| 13> C     -1.345534   -2.136000    0.001328
| 14> N     -2.598112   -2.697340    0.052940
| 15> C     -3.736575   -1.915106   -0.003319
| 16> N     -0.158497   -2.789925    0.048101
| 17> C      0.740501   -1.820611   -0.034492
| 18> N      0.185285   -0.591620   -0.130674
| 19> H     -4.337129    0.024694   -0.155017
| 20> H     -2.728481   -3.698033    0.134799
| 21> H      0.658302    0.299500   -0.204736
| 22> O     -2.226093    1.360434   -0.273392
| 23> O     -4.856728   -2.372456    0.040592
| 24> H      1.816893   -1.974607   -0.027660
| 25> *
| 26> %pal
| 27>   nprocs 16
| 28>   end
| 29>
| 30>                          ****END OF INPUT****
 Total Charge           Charge          ....    0
 Multiplicity           Mult            ....    1
 Number of Electrons    NEL             ....   78
FINAL SINGLE POINT ENERGY      -562.052119822044
FINAL SINGLE POINT ENERGY      -562.065567217355
FINAL SINGLE POINT ENERGY      -562.069283512077
FINAL SINGLE POINT ENERGY      -562.069704322965
FINAL SINGLE POINT ENERGY      -562.069744660838
FINAL SINGLE POINT ENERGY      -562.069753291377
FINAL SINGLE POINT ENERGY      -562.069756382246
                    ***********************HURRAY********************

CARTESIAN COORDINATES (ANGSTROEM)
---------------------------------
  N     -3.523180   -0.542109   -0.113741
  C     -2.270364    0.084096   -0.170631
  C     -1.165359   -0.753858   -0.109277
  C     -1.331789   -2.134690    0.003008
  N     -2.608147   -2.688317    0.054240
  C     -3.743117   -1.916996   -0.003300
  N     -0.156795   -2.781824    0.047850
  C      0.764557   -1.834215   -0.034134
  N      0.204940   -0.581819   -0.131724
  H     -4.366880    0.015566   -0.153471
  H     -2.740838   -3.688374    0.133829
  H      0.700905    0.294076   -0.205124
  O     -2.275574    1.407633   -0.278847
  O     -4.868392   -2.366122    0.036107
  H      1.837858   -1.993755   -0.027951

 Multiplicity           Mult            ....    1
 Number of Electrons    NEL             ....   78
 Basis Dimension        Dim             ....  174

ORBITAL ENERGIES
----------------

  NO   OCC          E(Eh)            E(eV)
   0   2.0000     -19.191197      -522.2190
   1   2.0000     -19.180883      -521.9384
   2   2.0000     -14.500341      -394.5743
   3   2.0000     -14.471646      -393.7935
   4   2.0000     -14.460261      -393.4837
   5   2.0000     -14.424269      -392.5043
   6   2.0000     -10.414195      -283.3847
   7   2.0000     -10.389392      -282.7097
   8   2.0000     -10.365502      -282.0597
   9   2.0000     -10.361423      -281.9486
  10   2.0000     -10.318865      -280.7906
  11   2.0000      -1.164283       -31.6817
  12   2.0000      -1.141484       -31.0614
  13   2.0000      -1.082955       -29.4687
  14   2.0000      -1.054912       -28.7056
  15   2.0000      -0.999853       -27.2074
  16   2.0000      -0.987962       -26.8838
  17   2.0000      -0.880161       -23.9504
  18   2.0000      -0.775320       -21.0975
  19   2.0000      -0.747412       -20.3381
  20   2.0000      -0.721126       -19.6228
  21   2.0000      -0.705142       -19.1879
  22   2.0000      -0.657465       -17.8905
  23   2.0000      -0.609421       -16.5832
  24   2.0000      -0.579324       -15.7642
  25   2.0000      -0.573871       -15.6158
  26   2.0000      -0.550358       -14.9760
  27   2.0000      -0.542304       -14.7568
  28   2.0000      -0.525056       -14.2875
  29   2.0000      -0.504753       -13.7350
  30   2.0000      -0.468645       -12.7525
  31   2.0000      -0.464682       -12.6446
  32   2.0000      -0.417614       -11.3639
  33   2.0000      -0.381872       -10.3913
  34   2.0000      -0.366239        -9.9659
  35   2.0000      -0.356436        -9.6991
  36   2.0000      -0.333336        -9.0705
  37   2.0000      -0.315856        -8.5949
  38   2.0000      -0.290271        -7.8987
  39   0.0000      -0.012005        -0.3267
  40   0.0000       0.070208         1.9105
  41   0.0000       0.076171         2.0727
  42   0.0000       0.081248         2.2109
  43   0.0000       0.103895         2.8271

MULLIKEN ATOMIC CHARGES
-----------------------
   0 N :   -0.094566
   1 C :    0.130197
   2 C :    0.071393
   3 C :    0.145719
   4 N :   -0.116539
   5 C :    0.166039
   6 N :   -0.186135
   7 C :    0.147631
   8 N :   -0.080579
   9 H :    0.125096
  10 H :    0.115630
  11 H :    0.117176
  12 O :   -0.333772
  13 O :   -0.241218
  14 H :    0.033926
Sum of atomic charges:   -0.0000000

LOEWDIN ATOMIC CHARGES
----------------------
   0 N :    0.144106
   1 C :   -0.080761
   2 C :   -0.138422
   3 C :   -0.077964
   4 N :    0.149048
   5 C :   -0.169962
   6 N :   -0.012478
   7 C :   -0.036235
   8 N :    0.218720
   9 H :    0.085462
  10 H :    0.084317
  11 H :    0.085418
  12 O :   -0.198720
  13 O :   -0.081830
  14 H :    0.029301

  Mayer bond orders larger than 0.100000
B(  0-N ,  1-C ) :   1.1330 B(  0-N ,  5-C ) :   1.1201 B(  0-N ,  9-H ) :   0.9194
B(  1-C ,  2-C ) :   1.0581 B(  1-C , 12-O ) :   2.0602 B(  2-C ,  3-C ) :   1.3168
B(  2-C ,  8-N ) :   1.1562 B(  3-C ,  4-N ) :   1.1285 B(  3-C ,  6-N ) :   1.5011
B(  4-N ,  5-C ) :   1.1516 B(  4-N , 10-H ) :   0.9285 B(  5-C , 13-O ) :   2.2112
B(  6-N ,  7-C ) :   1.6025 B(  7-C ,  8-N ) :   1.3370 B(  7-C , 14-H ) :   0.9698
B(  8-N , 11-H ) :   0.9481

-----------------------------------------------------------------------------
         ABSORPTION SPECTRUM VIA TRANSITION ELECTRIC DIPOLE MOMENTS
-----------------------------------------------------------------------------
State   Energy    Wavelength  fosc         T2        TX        TY        TZ
        (cm-1)      (nm)                 (au**2)    (au)      (au)      (au)
-----------------------------------------------------------------------------
   1   34810.4    287.3   0.000118943   0.00112   0.00039   0.00267   0.03343
   2   41694.9    239.8   0.246008073   1.94241  -0.66047   1.22359  -0.09498
   3   50383.6    198.5   0.001450847   0.00948   0.00051  -0.00125  -0.09736
   4   50769.2    197.0   0.090851566   0.58913  -0.11944  -0.75576   0.06077
   5   51852.1    192.9   0.015997099   0.10157  -0.21655   0.23318  -0.01735
   6   52828.9    189.3   0.000007007   0.00004   0.00190  -0.00033   0.00632
   7   54227.4    184.4   0.000003707   0.00002  -0.00078   0.00084   0.00460
   8   57629.6    173.5   0.001019085   0.00582   0.00603  -0.00524  -0.07588
   9   57897.4    172.7   0.612608932   3.48337  -1.85516   0.20422  -0.00685
  10   58745.7    170.2   0.108653215   0.60890  -0.66588  -0.40512   0.03709

FINAL SINGLE POINT ENERGY      -562.069757627630

DIPOLE MOMENT
-------------
                                X             Y             Z
Electronic contribution:     -1.88899       1.14556      -0.07949
Nuclear contribution   :      3.00594      -0.29262       0.00668
                        -----------------------------------------
Total Dipole Moment    :      1.11695       0.85295      -0.07281
                        -----------------------------------------
Magnitude (a.u.)       :      1.40726
Magnitude (Debye)      :      3.57698

Rotational constants in cm-1:     0.064032     0.036855     0.023392
Rotational constants in MHz :  1919.631643  1104.898900   701.265921

                             ****ORCA TERMINATED NORMALLY****
TOTAL RUN TIME: 0 days 0 hours 8 minutes 0 seconds 660 msec
